/*--------------------------------*- C++ -*----------------------------------*\
| =========                 |                                                 |
| \\      /  F ield         | OpenFOAM: The Open Source CFD Toolbox           |
|  \\    /   O peration     | Version:  2.3.0                                 |
|   \\  /    A nd           | Web:      www.OpenFOAM.org                      |
|    \\/     M anipulation  |                                                 |
\*---------------------------------------------------------------------------*/
FoamFile
{
    version     2.0;
    format      ascii;
    class       volScalarField;
    location    "0.5";
    object      p;
}
// * * * * * * * * * * * * * * * * * * * * * * * * * * * * * * * * * * * * * //

dimensions      [0 2 -2 0 0 0 0];

internalField   nonuniform List<scalar> 
10000
(
0.00139741
0.00149309
0.00126927
0.000679797
-0.000225782
-0.00139114
-0.0027591
-0.00427483
-0.0058886
-0.00755642
-0.00923966
-0.0109046
-0.0125221
-0.0140664
-0.0155158
-0.0168511
-0.0180562
-0.0191173
-0.0200228
-0.020763
-0.0213302
-0.0217182
-0.0219222
-0.0219389
-0.0217663
-0.0214032
-0.0208499
-0.0201073
-0.0191773
-0.0180629
-0.0167675
-0.0152953
-0.0136512
-0.0118409
-0.00987032
-0.00774619
-0.00547564
-0.00306628
-0.000526159
0.00213628
0.00491219
0.00779239
0.0107673
0.0138273
0.016962
0.0201612
0.0234144
0.0267107
0.0300391
0.0333886
0.0367478
0.0401055
0.0434502
0.0467704
0.0500547
0.0532917
0.0564699
0.0595783
0.0626056
0.065541
0.0683738
0.0710935
0.0736902
0.076154
0.0784756
0.0806464
0.0826579
0.0845026
0.0861733
0.0876638
0.0889684
0.0900825
0.0910021
0.0917245
0.0922477
0.0925711
0.0926951
0.0926214
0.092353
0.0918945
0.0912519
0.0904329
0.089447
0.0883054
0.0870215
0.0856111
0.0840922
0.0824854
0.0808144
0.0791061
0.077391
0.0757035
0.0740827
0.0725724
0.0712213
0.0700823
0.0692095
0.0686542
0.068459
0.0685701
0.00130178
0.00139789
0.00118038
0.000653629
-0.000131368
-0.00113505
-0.00231552
-0.00362944
-0.0050356
-0.0064962
-0.00797708
-0.00944773
-0.0108811
-0.0122533
-0.0135435
-0.0147335
-0.0158076
-0.0167521
-0.0175558
-0.0182089
-0.0187035
-0.0190333
-0.0191932
-0.0191798
-0.0189905
-0.018624
-0.01808
-0.0173591
-0.0164629
-0.0153936
-0.0141544
-0.012749
-0.0111819
-0.00945806
-0.0075832
-0.00556342
-0.00340539
-0.0011162
0.00129658
0.00382502
0.0064608
0.00919523
0.0120193
0.0149238
0.0178991
0.0209354
0.0240226
0.0271506
0.0303089
0.0334869
0.0366741
0.0398595
0.0430325
0.046182
0.0492974
0.0523677
0.0553823
0.0583305
0.0612018
0.063986
0.066673
0.0692531
0.0717167
0.0740549
0.0762589
0.0783206
0.0802322
0.0819868
0.0835778
0.0849994
0.0862468
0.0873155
0.0882023
0.0889049
0.0894217
0.0897524
0.0898979
0.0898601
0.0896424
0.0892494
0.0886872
0.0879637
0.087088
0.0860715
0.0849271
0.08367
0.0823175
0.0808893
0.0794077
0.0778976
0.0763871
0.0749073
0.0734926
0.0721805
0.0710112
0.0700264
0.0692654
0.0687643
0.0685695
0.0686811
0.00152484
0.00161598
0.00139878
0.000904299
0.000187875
-0.000717526
-0.00177796
-0.00295731
-0.00422053
-0.00553476
-0.00686969
-0.00819777
-0.00949418
-0.0107368
-0.011906
-0.0129845
-0.0139572
-0.0148111
-0.0155351
-0.0161197
-0.016557
-0.0168407
-0.0169657
-0.0169283
-0.0167258
-0.0163566
-0.0158202
-0.0151169
-0.014248
-0.0132153
-0.0120218
-0.0106707
-0.00916618
-0.0075129
-0.00571607
-0.00378147
-0.00171532
0.00047566
0.00278435
0.00520321
0.00772435
0.0103395
0.0130402
0.0158175
0.0186623
0.0215652
0.0245167
0.0275069
0.0305261
0.033564
0.0366104
0.0396552
0.0426879
0.0456982
0.0486757
0.0516102
0.0544913
0.0573091
0.0600535
0.0627147
0.0652833
0.06775
0.0701057
0.072342
0.0744508
0.0764242
0.0782551
0.0799368
0.0814635
0.0828297
0.0840308
0.0850631
0.0859234
0.0866099
0.0871214
0.0874578
0.0876201
0.0876105
0.0874325
0.0870908
0.0865915
0.0859423
0.0851522
0.0842322
0.0831949
0.0820547
0.0808281
0.0795338
0.0781925
0.0768275
0.0754644
0.0741312
0.0728585
0.0716788
0.0706265
0.0697362
0.0690399
0.0685681
0.068374
0.0684869
0.00211308
0.00214349
0.00189409
0.0013988
0.000708812
-0.000146016
-0.00113609
-0.00223024
-0.00339804
-0.00461066
-0.00584116
-0.00706474
-0.00825879
-0.00940294
-0.0104789
-0.0114706
-0.0123637
-0.0131458
-0.0138062
-0.0143358
-0.0147269
-0.0149733
-0.01507
-0.0150131
-0.0148
-0.014429
-0.0138993
-0.0132111
-0.0123653
-0.0113638
-0.010209
-0.00890405
-0.00745271
-0.00585936
-0.00412889
-0.00226675
-0.000278825
0.00182852
0.00404852
0.006374
0.00879741
0.0113109
0.0139063
0.0165751
0.0193086
0.0220978
0.0249336
0.0278065
0.0307071
0.0336256
0.0365523
0.0394773
0.0423908
0.0452827
0.0481431
0.0509623
0.0537303
0.0564375
0.0590743
0.0616316
0.0641
0.0664708
0.0687356
0.070886
0.0729144
0.0748135
0.0765765
0.0781971
0.0796697
0.0809894
0.0821517
0.0831533
0.0839914
0.0846641
0.0851708
0.0855113
0.0856869
0.0856998
0.0855536
0.0852528
0.0848036
0.0842133
0.0834909
0.0826467
0.0816927
0.0806428
0.0795126
0.0783194
0.0770826
0.0758236
0.0745657
0.0733344
0.0721566
0.0710611
0.0700778
0.0692369
0.0685665
0.0680945
0.0678724
0.067934
0.00301881
0.00293111
0.00261264
0.00208791
0.00139543
0.000561798
-0.000386954
-0.00142403
-0.00252315
-0.00365912
-0.00480816
-0.00594813
-0.00705865
-0.00812114
-0.00911885
-0.0100368
-0.0108616
-0.0115817
-0.0121869
-0.0126685
-0.0130192
-0.0132329
-0.0133048
-0.013231
-0.0130089
-0.0126368
-0.0121138
-0.0114399
-0.010616
-0.00964352
-0.00852484
-0.00726282
-0.00586098
-0.0043234
-0.00265471
-0.000860016
0.00105508
0.00308454
0.00522192
0.00746038
0.00979274
0.0122115
0.0147088
0.0172765
0.0199063
0.0225896
0.0253176
0.0280812
0.0308714
0.0336789
0.0364942
0.0393079
0.0421105
0.0448925
0.0476442
0.0503563
0.0530194
0.0556242
0.0581615
0.0606224
0.0629982
0.0652806
0.0674612
0.0695324
0.0714868
0.0733174
0.0750178
0.076582
0.0780049
0.0792816
0.0804081
0.0813813
0.0821986
0.0828584
0.08336
0.0837036
0.0838904
0.0839228
0.0838041
0.0835389
0.0831331
0.0825938
0.0819295
0.0811501
0.0802671
0.0792935
0.0782436
0.0771338
0.0759819
0.0748074
0.0736315
0.0724769
0.0713675
0.0703287
0.0693863
0.0685667
0.0678947
0.0673956
0.06711
0.0670638
0.00418884
0.00394184
0.00352369
0.00294385
0.00222316
0.00138485
0.000451802
-0.000553207
-0.00160764
-0.00268965
-0.00377839
-0.00485426
-0.00589903
-0.00689596
-0.00782978
-0.00868675
-0.00945459
-0.0101224
-0.0106808
-0.0111215
-0.0114376
-0.0116234
-0.0116741
-0.0115862
-0.0113569
-0.0109846
-0.0104684
-0.00980815
-0.00900466
-0.00805929
-0.00697411
-0.00575184
-0.00439577
-0.00290974
-0.00129811
0.000434264
0.00228207
0.00423956
0.00630061
0.00845868
0.0107069
0.0130381
0.0154447
0.0179191
0.0204531
0.0230386
0.025667
0.0283298
0.0310182
0.0337232
0.0364358
0.0391469
0.0418474
0.0445281
0.0471798
0.0497936
0.0523602
0.0548709
0.0573168
0.0596895
0.0619804
0.0641816
0.0662853
0.068284
0.0701707
0.0719387
0.073582
0.0750948
0.0764721
0.0777096
0.0788034
0.0797504
0.0805484
0.0811959
0.0816923
0.0820378
0.0822337
0.0822823
0.0821868
0.0819517
0.0815826
0.0810863
0.0804709
0.0797457
0.0789214
0.0780102
0.0770255
0.0759823
0.0748968
0.0737868
0.0726713
0.0715705
0.0705057
0.0694988
0.0685724
0.0677489
0.0670505
0.0664996
0.0661204
0.0659252
0.00557015
0.00513711
0.00459611
0.00393953
0.00316836
0.0023026
0.00136241
0.000366918
-0.00066474
-0.00171375
-0.00276197
-0.00379217
-0.0047882
-0.00573508
-0.00661905
-0.00742763
-0.0081496
-0.00877497
-0.00929497
-0.009702
-0.00998956
-0.0101522
-0.0101857
-0.0100863
-0.00985176
-0.00948025
-0.00897096
-0.0083238
-0.00753939
-0.00661903
-0.00556466
-0.00437883
-0.00306464
-0.00162573
-6.62512e-05
0.00160919
0.00339554
0.00528732
0.00727866
0.00936331
0.0115347
0.013786
0.0161099
0.018499
0.0209456
0.0234418
0.0259795
0.0285503
0.0311459
0.0337575
0.0363766
0.0389943
0.041602
0.0441906
0.0467515
0.0492759
0.0517551
0.0541805
0.0565437
0.0588364
0.0610506
0.0631785
0.0652127
0.0671459
0.0689716
0.0706832
0.0722749
0.0737413
0.0750776
0.0762796
0.0773437
0.078267
0.0790472
0.0796831
0.080174
0.0805203
0.0807231
0.0807846
0.080708
0.0804975
0.0801584
0.0796972
0.0791213
0.0784397
0.0776621
0.0767999
0.0758655
0.0748725
0.0738358
0.0727714
0.0716961
0.0706281
0.0695859
0.0685887
0.0676557
0.0668061
0.0660595
0.0654355
0.0649397
0.0645681
0.00711276
0.00647745
0.00579704
0.00504667
0.00420687
0.00329477
0.00232821
0.00132304
0.000295308
-0.000738921
-0.00176398
-0.00276487
-0.00372737
-0.0046382
-0.00548507
-0.00625677
-0.00694314
-0.00753509
-0.00802461
-0.0084047
-0.00866937
-0.00881362
-0.00883337
-0.0087254
-0.00848735
-0.00811766
-0.00761552
-0.00698087
-0.00621431
-0.00531707
-0.00429099
-0.00313849
-0.00186253
-0.000466572
0.00104543
0.00266906
0.0043995
0.00623151
0.00815946
0.0101774
0.0122789
0.0144575
0.0167063
0.019018
0.0213852
0.0238004
0.0262557
0.028743
0.0312544
0.0337814
0.0363157
0.0388489
0.0413725
0.043878
0.0463568
0.0488005
0.0512007
0.0535493
0.0558379
0.0580587
0.0602038
0.0622659
0.0642377
0.0661123
0.0678831
0.0695442
0.0710897
0.0725146
0.0738141
0.0749843
0.0760216
0.0769233
0.0776872
0.0783121
0.0787973
0.0791432
0.0793509
0.0794223
0.0793605
0.0791695
0.0788542
0.0784205
0.0778757
0.0772278
0.0764859
0.0756605
0.074763
0.0738056
0.0728019
0.0717661
0.0707134
0.0696596
0.068621
0.0676142
0.0666555
0.0657611
0.0649484
0.0642344
0.0636052
0.0630403
0.00877214
0.00792582
0.0070949
0.00623788
0.00531509
0.00434131
0.00333248
0.0023015
0.00126163
0.000226488
-0.000790536
-0.00177646
-0.00271891
-0.00360619
-0.00442745
-0.00517269
-0.00583281
-0.00639965
-0.00686595
-0.00722537
-0.00747245
-0.00760261
-0.00761212
-0.00749807
-0.00725829
-0.00689139
-0.00639664
-0.00577403
-0.00502417
-0.00414827
-0.0031481
-0.00202601
-0.000784806
0.000572162
0.00204111
0.00361781
0.00529763
0.00707554
0.00894614
0.0109037
0.0129421
0.015055
0.0172358
0.0194775
0.021773
0.024115
0.0264959
0.028908
0.0313434
0.0337942
0.0362522
0.0387093
0.0411573
0.043588
0.0459931
0.0483644
0.0506939
0.0529736
0.0551955
0.057352
0.0594355
0.0614389
0.063355
0.0651773
0.0668995
0.0685155
0.07002
0.0714079
0.0726746
0.0738164
0.0748297
0.075712
0.076461
0.0770756
0.077555
0.0778995
0.0781101
0.0781887
0.078138
0.0779617
0.0776644
0.0772516
0.07673
0.0761068
0.0753907
0.074591
0.0737182
0.0727833
0.0717985
0.0707766
0.0697309
0.0686754
0.0676241
0.0665914
0.0655911
0.0646364
0.0637432
0.0629262
0.0621521
0.0613845
0.0105097
0.00944872
0.00846038
0.00748735
0.00647052
0.00542278
0.00435861
0.00328832
0.0022227
0.00117316
0.000151059
-0.000832496
-0.0017668
-0.00264168
-0.00344762
-0.00417582
-0.00481821
-0.00536752
-0.00581727
-0.00616178
-0.00639614
-0.00651624
-0.00651873
-0.00640099
-0.00616112
-0.00579789
-0.00531074
-0.0046997
-0.00396544
-0.00310916
-0.00213263
-0.00103811
0.00017165
0.00149344
0.00292361
0.00445807
0.00609237
0.00782165
0.00964071
0.011544
0.0135257
0.0155797
0.0176995
0.0198784
0.0221096
0.024386
0.0267003
0.029045
0.0314125
0.0337951
0.0361849
0.0385741
0.0409547
0.0433187
0.0456582
0.0479652
0.0502318
0.0524504
0.0546132
0.0567128
0.0587418
0.0606933
0.0625603
0.0643366
0.0660158
0.0675923
0.0690606
0.070416
0.0716539
0.0727706
0.0737628
0.0746276
0.0753632
0.0759681
0.0764417
0.076784
0.0769959
0.0770791
0.0770361
0.0768702
0.0765857
0.0761876
0.0756819
0.0750755
0.074376
0.0735921
0.0727331
0.0718091
0.0708308
0.0698097
0.0687574
0.0676863
0.0666084
0.0655361
0.0644808
0.0634534
0.0624684
0.0615388
0.0606127
0.0596381
0.012292
0.0110162
0.00986663
0.00877108
0.00765188
0.00652054
0.00539044
0.00426966
0.00316684
0.00209141
0.00105292
6.07924e-05
-0.000875824
-0.00174816
-0.00254797
-0.00326756
-0.00389989
-0.00443854
-0.0048778
-0.00521264
-0.00543875
-0.00555248
-0.00555086
-0.00543163
-0.00519314
-0.00483439
-0.00435496
-0.00375501
-0.00303525
-0.00219694
-0.00124182
-0.000172141
0.00100942
0.00229973
0.00369524
0.00519201
0.00678571
0.00847165
0.0102448
0.0120998
0.0140311
0.0160326
0.0180981
0.0202213
0.0223954
0.0246136
0.0268687
0.0291536
0.031461
0.0337832
0.0361127
0.0384419
0.040763
0.0430682
0.0453499
0.0476004
0.0498118
0.0519768
0.0540878
0.0561376
0.0581191
0.0600253
0.0618496
0.0635858
0.0652278
0.0667699
0.068207
0.0695342
0.0707471
0.0718421
0.0728157
0.0736654
0.0743889
0.074985
0.0754527
0.0757921
0.0760039
0.0760895
0.0760512
0.0758918
0.0756154
0.0752264
0.0747303
0.0741333
0.0734424
0.0726653
0.0718104
0.0708868
0.0699041
0.0688724
0.0678018
0.0667032
0.0655869
0.0644634
0.0633422
0.0622322
0.0611468
0.0600978
0.0590152
0.057833
0.0140903
0.0126017
0.0112893
0.010067
0.00883929
0.00761689
0.00641239
0.00523197
0.00408238
0.00297136
0.00190682
0.000896662
-5.13789e-05
-0.000929826
-0.0017316
-0.00245008
-0.00307919
-0.00361333
-0.00404756
-0.00437748
-0.00459935
-0.00471002
-0.00470693
-0.00458816
-0.00435236
-0.00399874
-0.00352707
-0.00293766
-0.0022313
-0.00140929
-0.000473405
0.000574119
0.00173062
0.00299305
0.00435792
0.00582141
0.0073793
0.00902705
0.0107598
0.0125723
0.0144591
0.0164144
0.0184323
0.0205065
0.0226304
0.0247975
0.0270008
0.0292334
0.031488
0.0337575
0.0360344
0.0383112
0.0405805
0.0428347
0.0450662
0.0472676
0.0494313
0.05155
0.0536164
0.0556233
0.0575639
0.0594313
0.0612192
0.0629211
0.0645314
0.0660443
0.0674548
0.0687581
0.0699498
0.0710263
0.0719842
0.0728207
0.0735338
0.0741219
0.0745841
0.0749203
0.0751308
0.0752168
0.0751805
0.0750243
0.0747517
0.0743668
0.0738745
0.0732804
0.0725908
0.0718127
0.0709534
0.0700212
0.0690244
0.0679721
0.0668731
0.0657368
0.0645721
0.0633879
0.062192
0.0609915
0.0597992
0.058626
0.0573852
0.0559967
0.0158799
0.0141816
0.0127065
0.0113547
0.0100143
0.00869513
0.00740956
0.00616207
0.00495783
0.00380307
0.00270428
0.00166798
0.000700644
-0.000191453
-0.00100231
-0.00172628
-0.00235819
-0.0028933
-0.00332734
-0.00365657
-0.00387779
-0.00398833
-0.00398609
-0.00386948
-0.00363744
-0.00328946
-0.0028255
-0.00224599
-0.00155186
-0.000744477
0.000174347
0.00120236
0.00233691
0.00357496
0.00491312
0.00634764
0.00787439
0.00948894
0.0111865
0.0129622
0.0148104
0.0167258
0.0187023
0.020734
0.0228146
0.0249375
0.0270961
0.0292835
0.0314929
0.033717
0.0359486
0.0381806
0.0404056
0.0426161
0.0448049
0.0469645
0.0490877
0.0511672
0.0531959
0.0551668
0.0570731
0.0589081
0.0606654
0.0623389
0.0639228
0.0654116
0.0668002
0.0680838
0.0692581
0.0703194
0.0712643
0.07209
0.0727943
0.0733755
0.0738326
0.0741652
0.0743735
0.0744585
0.0744219
0.0742658
0.0739934
0.0736083
0.0731148
0.0725179
0.0718232
0.071037
0.0701658
0.069217
0.0681979
0.0671163
0.0659803
0.0647976
0.0635762
0.0623234
0.0610456
0.0597485
0.0584446
0.0571442
0.0557445
0.0541527
0.017639
0.0157353
0.0140983
0.0126158
0.0111596
0.00973961
0.00836775
0.00704726
0.0057819
0.00457663
0.00343667
0.00236734
0.00137395
0.0004617
-0.000364407
-0.00109966
-0.00173969
-0.00228054
-0.00271864
-0.00305087
-0.00327458
-0.00338758
-0.00338817
-0.00327515
-0.00304777
-0.00270574
-0.00224924
-0.00167891
-0.000995777
-0.000201299
0.000702643
0.00171377
0.00282943
0.00404659
0.00536189
0.00677165
0.00827182
0.00985808
0.0115258
0.01327
0.0150855
0.0169668
0.0189083
0.0209039
0.0229477
0.0250332
0.027154
0.0293033
0.0314744
0.0336604
0.0358541
0.0380485
0.0402364
0.0424106
0.0445638
0.0466889
0.0487787
0.0508259
0.0528238
0.0547652
0.0566436
0.0584523
0.0601851
0.0618358
0.0633987
0.0648684
0.0662396
0.0675078
0.0686685
0.0697179
0.0706527
0.0714698
0.0721671
0.0727426
0.0731952
0.0735244
0.07373
0.0738127
0.0737739
0.0736155
0.0733401
0.072951
0.0724518
0.0718471
0.0711418
0.0703414
0.0694518
0.0684794
0.0674308
0.0663127
0.0651321
0.0638959
0.0626107
0.0612829
0.0599175
0.0585191
0.0571001
0.0556708
0.0541128
0.0523212
0.0193489
0.0172441
0.0154471
0.0138333
0.0122596
0.0107356
0.00927353
0.00787532
0.0065436
0.00528223
0.00409532
0.00298714
0.00196195
0.00102399
0.000177335
-0.000574163
-0.00122692
-0.00177768
-0.00222353
-0.00256197
-0.00279086
-0.0029085
-0.0029136
-0.00280532
-0.00258323
-0.00224731
-0.00179791
-0.00123589
-0.000562414
0.000220936
0.00111221
0.00210909
0.0032089
0.00440861
0.00570487
0.00709402
0.00857211
0.0101349
0.0117777
0.0134959
0.0152842
0.0171374
0.0190499
0.0210158
0.0230293
0.025084
0.0271737
0.0292918
0.0314317
0.0335865
0.0357494
0.0379134
0.0400714
0.0422163
0.0443411
0.0464386
0.0485018
0.0505237
0.0524973
0.0544158
0.0562726
0.0580612
0.0597753
0.0614088
0.062956
0.0644115
0.06577
0.067027
0.0681779
0.0692188
0.0701463
0.0709574
0.0716496
0.0722209
0.0726699
0.0729958
0.0731984
0.0732781
0.0732357
0.0730729
0.0727919
0.0723955
0.0718869
0.0712701
0.0705493
0.0697295
0.0688158
0.0678139
0.0667296
0.0655687
0.0643373
0.0630414
0.0616867
0.0602786
0.0588211
0.0573178
0.0557813
0.0542221
0.0525071
0.0505195
0.0209931
0.0186916
0.0167367
0.0149918
0.0132995
0.0116695
0.0101142
0.00863454
0.00723226
0.00591022
0.0046716
0.0035197
0.00245788
0.00148949
0.000617767
-0.000154218
-0.000823616
-0.00138784
-0.00184461
-0.00219198
-0.00242833
-0.00255243
-0.00256339
-0.00246073
-0.00224433
-0.00191443
-0.00147161
-0.000916893
-0.00025165
0.000522433
0.00140331
0.00238862
0.00347563
0.0046613
0.00594229
0.00731496
0.00877539
0.0103194
0.0119424
0.0136398
0.0154065
0.0172373
0.0191268
0.0210691
0.0230586
0.025089
0.0271543
0.0292479
0.0313634
0.033494
0.035633
0.0377735
0.0399086
0.0420312
0.0441345
0.0462114
0.0482549
0.050258
0.052214
0.054116
0.0559575
0.057732
0.0594331
0.061055
0.0625918
0.0640381
0.0653886
0.0666386
0.0677835
0.0688195
0.0697428
0.0705504
0.0712396
0.0718083
0.0722548
0.0725782
0.0727778
0.0728538
0.0728069
0.0726381
0.0723494
0.071943
0.0714218
0.0707892
0.0700489
0.0692052
0.0682626
0.0672261
0.0661008
0.0648918
0.0636044
0.0622437
0.0608147
0.0593219
0.0577688
0.0561579
0.0545023
0.0528127
0.0509423
0.0487627
0.0225569
0.0200631
0.0179525
0.0160773
0.0142659
0.0125284
0.0108776
0.00931371
0.00783755
0.00645117
0.00515692
0.00395727
0.00285479
0.00185202
0.000951432
0.000155384
-0.000533961
-0.00111465
-0.00158498
-0.00194354
-0.00218921
-0.00232121
-0.00233906
-0.00224261
-0.00203204
-0.00170787
-0.00127093
-0.0007224
-6.38496e-05
0.000702934
0.00157577
0.00255221
0.00362949
0.00480454
0.00607402
0.00743429
0.00888145
0.0104113
0.0120195
0.0137014
0.0154519
0.017266
0.0191382
0.0210631
0.0230348
0.0250473
0.0270946
0.0291704
0.0312681
0.0333813
0.0355033
0.0376272
0.0397462
0.0418535
0.0439422
0.0460052
0.0480356
0.0500267
0.0519715
0.0538634
0.0556958
0.0574621
0.0591562
0.060772
0.0623036
0.0637457
0.0650928
0.0663401
0.0674831
0.0685177
0.06944
0.0702469
0.0709355
0.0715033
0.0719488
0.0722704
0.0724675
0.0725397
0.0724875
0.0723117
0.0720135
0.0715951
0.0710587
0.0704073
0.069644
0.0687726
0.0677971
0.0667217
0.0655509
0.0642893
0.0629414
0.0615117
0.0600044
0.0584237
0.056772
0.0550515
0.0532758
0.0514559
0.0494316
0.0470638
0.0240272
0.0213452
0.0190812
0.0170765
0.015146
0.0133003
0.0115524
0.00990211
0.00834945
0.00689579
0.00554276
0.0042921
0.00314563
0.0021052
0.0011726
0.000349522
-0.000362501
-0.000962112
-0.00144816
-0.00181973
-0.00207619
-0.00221718
-0.0022426
-0.00215266
-0.00194783
-0.0016289
-0.00119694
-0.000653352
1.36318e-07
0.000761703
0.0016289
0.00259925
0.00366991
0.0048378
0.00609953
0.00745147
0.00888974
0.0104102
0.0120084
0.0136799
0.0154196
0.0172226
0.0190834
0.0209968
0.0229568
0.0249577
0.0269935
0.0290579
0.0311445
0.033247
0.0353586
0.0374727
0.0395826
0.0416813
0.043762
0.0458178
0.0478419
0.0498274
0.0517676
0.0536557
0.055485
0.0572493
0.058942
0.0605573
0.0620891
0.0635319
0.0648804
0.0661295
0.0672747
0.0683115
0.0692363
0.0700453
0.0707357
0.071305
0.0717509
0.072072
0.0722672
0.0723359
0.0722782
0.0720945
0.0717859
0.0713538
0.0708001
0.0701274
0.0693384
0.0684362
0.0674243
0.0663065
0.0650866
0.0637686
0.0623565
0.0608542
0.0592655
0.0575939
0.0558414
0.0540098
0.0521132
0.0501633
0.0479869
0.0454341
0.0253921
0.0225258
0.0201107
0.0179775
0.0159282
0.0139737
0.0121277
0.0103894
0.00875825
0.00723501
0.00582068
0.00451637
0.00332323
0.00224249
0.00127532
0.000422798
-0.000314113
-0.000934615
-0.00143808
-0.00182408
-0.00209241
-0.00224312
-0.0022765
-0.00219308
-0.00199365
-0.00167924
-0.0012512
-0.000711084
-6.0756e-05
0.000697642
0.0015617
0.00252879
0.00359601
0.00476022
0.00601799
0.00736569
0.00879941
0.010315
0.0119082
0.0135744
0.0153086
0.017106
0.0189612
0.0208689
0.0228234
0.0248189
0.0268495
0.028909
0.030991
0.0330893
0.0351973
0.0373083
0.0394156
0.0415124
0.043592
0.0456473
0.0476717
0.0496582
0.0516
0.0534906
0.0553231
0.0570912
0.0587885
0.0604087
0.0619461
0.0633948
0.0647495
0.0660049
0.0671564
0.0681995
0.0691301
0.0699445
0.0706395
0.0712124
0.0716608
0.0719828
0.0721772
0.072243
0.07218
0.0719882
0.0716683
0.0712214
0.070649
0.0699531
0.069136
0.0682005
0.0671495
0.0659862
0.0647141
0.0633367
0.0618574
0.0602797
0.0586069
0.0568421
0.0549871
0.0530431
0.0510252
0.0489456
0.0466185
0.0438839
0.026641
0.0235936
0.0210296
0.0187691
0.0166013
0.0145379
0.0125931
0.0107657
0.00905451
0.0074599
0.00598232
0.00462227
0.00338035
0.00225721
0.00125343
0.000369563
-0.00039397
-0.00103688
-0.00155903
-0.00196045
-0.00224137
-0.00240221
-0.00244363
-0.00236649
-0.00217185
-0.00186105
-0.00143563
-0.000897391
-0.000248343
0.000509207
0.00137274
0.00233951
0.00340653
0.00457059
0.00582823
0.00717577
0.00860933
0.0101248
0.0117177
0.0133837
0.0151178
0.0169151
0.0187703
0.0206782
0.0226332
0.0246294
0.026661
0.028722
0.0308059
0.0329066
0.0350176
0.0371321
0.0392435
0.0413451
0.0434301
0.0454916
0.0475227
0.0495167
0.0514668
0.0533661
0.0552079
0.0569859
0.0586934
0.0603244
0.0618727
0.0633325
0.0646983
0.0659648
0.067127
0.0681803
0.0691205
0.0699436
0.0706462
0.0712254
0.0716784
0.0720032
0.0721981
0.072262
0.0721942
0.0719944
0.071663
0.0712006
0.0706084
0.0698879
0.0690412
0.0680703
0.066978
0.0657669
0.0644401
0.0630007
0.0614517
0.0597961
0.0580371
0.0561774
0.0542183
0.0521611
0.0500214
0.0478124
0.045336
0.0424219
0.0277639
0.0245385
0.0218274
0.0194407
0.017155
0.0149827
0.0129387
0.0110213
0.00922905
0.00756174
0.00601939
0.00460201
0.00330969
0.00214252
0.00110059
0.000183941
-0.000607503
-0.00127392
-0.00181563
-0.0022331
-0.00252697
-0.00269803
-0.00274727
-0.00267588
-0.00248521
-0.00217686
-0.0017526
-0.00121445
-0.000564584
0.000194535
0.00106026
0.00202973
0.00309986
0.00426736
0.00552873
0.00688026
0.00831803
0.0098379
0.0114355
0.0131063
0.0148455
0.0166482
0.0185092
0.0204231
0.0223845
0.0243875
0.0264264
0.0284951
0.0305874
0.032697
0.0348174
0.0369421
0.0390643
0.0411773
0.0432744
0.0453486
0.0473931
0.0494011
0.0513657
0.0532801
0.0551375
0.0569314
0.0586551
0.0603025
0.0618673
0.0633435
0.0647255
0.0660078
0.0671852
0.068253
0.0692066
0.070042
0.0707555
0.0713438
0.0718039
0.0721336
0.0723308
0.0723941
0.0723224
0.0721152
0.0717724
0.0712944
0.0706818
0.0699359
0.0690582
0.0680506
0.0669152
0.0656545
0.0642711
0.0627676
0.0611468
0.0594115
0.0575645
0.0556082
0.0535439
0.0513726
0.0491109
0.0467727
0.044148
0.0410564
0.0287514
0.0253506
0.0224942
0.0199823
0.0175793
0.0152983
0.0131548
0.011147
0.00927288
0.00753191
0.00592369
0.0044478
0.00310386
0.00189148
0.000810297
-0.000140152
-0.000960383
-0.00165101
-0.00221279
-0.00264659
-0.00295344
-0.00313449
-0.00319106
-0.00312463
-0.00293685
-0.00262958
-0.00220482
-0.00166477
-0.00101184
-0.000248607
0.000622139
0.00159742
0.00267405
0.00384866
0.0051177
0.0064774
0.0079238
0.00945274
0.0110599
0.0127406
0.0144902
0.0163038
0.018176
0.0201018
0.0220755
0.0240914
0.0261438
0.0282266
0.0303336
0.0324585
0.034595
0.0367363
0.0388759
0.041007
0.0431227
0.0452163
0.0472808
0.0493093
0.0512949
0.0532307
0.0551099
0.0569258
0.0586718
0.0603414
0.0619283
0.0634263
0.0648297
0.0661328
0.0673302
0.0684169
0.0693881
0.0702396
0.0709674
0.0715679
0.0720381
0.072375
0.0725766
0.072641
0.0725667
0.0723531
0.0719995
0.071506
0.0708729
0.0701011
0.0691918
0.0681464
0.0669668
0.065655
0.0642134
0.0626442
0.0609501
0.0591335
0.0571969
0.0551428
0.0529723
0.0506862
0.0483021
0.0458348
0.0430624
0.0397948
0.029595
0.0260209
0.0230206
0.0203844
0.0178647
0.0154752
0.0132323
0.0111337
0.00917718
0.0073619
0.00568706
0.00415184
0.00275544
0.00149706
0.000375873
-0.000609
-0.00145851
-0.0021737
-0.0027557
-0.00320578
-0.00352531
-0.00371583
-0.00377895
-0.00371645
-0.00353026
-0.00322248
-0.00279535
-0.00225126
-0.00159283
-0.000822792
5.59332e-05
0.00104024
0.00212686
0.00331233
0.00459302
0.00596512
0.00742461
0.00896731
0.0105888
0.0122846
0.0140499
0.0158797
0.017769
0.0197123
0.0217042
0.0237391
0.0258112
0.0279143
0.0300424
0.0321891
0.0343481
0.0365127
0.0386762
0.040832
0.0429731
0.0450926
0.0471837
0.0492392
0.0512523
0.053216
0.0551233
0.0569675
0.0587418
0.0604395
0.0620543
0.0635798
0.0650099
0.0663389
0.0675611
0.0686714
0.0696646
0.0705363
0.0712822
0.0718984
0.0723816
0.0727287
0.072937
0.0730045
0.0729295
0.0727107
0.0723472
0.0718389
0.0711857
0.070388
0.0694467
0.068363
0.0671384
0.0657746
0.0642736
0.0626376
0.0608688
0.0589695
0.0569422
0.0547893
0.0525115
0.05011
0.047603
0.0450065
0.0420868
0.038644
0.0302861
0.0265404
0.0233976
0.0206378
0.0180019
0.0155042
0.0131619
0.0109724
0.00893326
0.00704326
0.00530133
0.00370628
0.00225693
0.000952075
-0.000209494
-0.00122907
-0.00210802
-0.00284776
-0.00344981
-0.0039158
-0.00424745
-0.00444661
-0.00451523
-0.00445538
-0.00426924
-0.00395915
-0.00352757
-0.00297714
-0.00231062
-0.00153092
-0.000641119
0.00035557
0.00145577
0.00265593
0.00395233
0.0053411
0.00681819
0.00837937
0.0100202
0.0117362
0.0135224
0.015374
0.0172858
0.0192525
0.0212686
0.0233285
0.0254263
0.0275561
0.0297116
0.0318866
0.0340746
0.036269
0.0384632
0.0406502
0.0428233
0.0449755
0.0470997
0.049189
0.0512361
0.0532342
0.055176
0.0570548
0.0588635
0.0605955
0.0622441
0.0638027
0.0652652
0.0666254
0.0678776
0.0690162
0.0700361
0.0709324
0.0717004
0.0723361
0.0728357
0.073196
0.0734139
0.073487
0.0734132
0.0731909
0.0728191
0.072297
0.0716243
0.0708012
0.0698281
0.0687059
0.0674358
0.0660194
0.0644583
0.0627544
0.06091
0.0589271
0.0568081
0.0545552
0.0521694
0.0496516
0.0470214
0.0442954
0.0412283
0.0376105
0.0308167
0.0269008
0.0236162
0.0207336
0.017982
0.0153764
0.0129348
0.0106544
0.0085325
0.00656762
0.00475838
0.00310326
0.00160074
0.000249268
-0.000952765
-0.00200702
-0.00291523
-0.00367921
-0.00430083
-0.00478206
-0.00512495
-0.00533168
-0.0054045
-0.00534575
-0.00515788
-0.00484346
-0.00440519
-0.0038459
-0.00316854
-0.0023762
-0.00147208
-0.000459546
0.000657928
0.0018767
0.00319296
0.00460277
0.00610203
0.00768644
0.00935158
0.0110928
0.0129053
0.0147842
0.0167242
0.0187201
0.0207663
0.0228572
0.024987
0.0271496
0.029339
0.0315487
0.0337723
0.0360031
0.0382345
0.0404596
0.0426714
0.0448629
0.047027
0.0491565
0.0512444
0.0532834
0.0552663
0.0571861
0.0590357
0.060808
0.0624964
0.0640942
0.0655947
0.0669917
0.0682792
0.0694514
0.0705028
0.0714282
0.0722228
0.072882
0.0734019
0.0737788
0.0740093
0.0740907
0.0740206
0.0737971
0.0734186
0.0728842
0.0721932
0.0713454
0.070341
0.0691806
0.067865
0.0663957
0.064774
0.0630018
0.061081
0.0590136
0.056802
0.0544484
0.0519537
0.0493189
0.0465646
0.0437085
0.0404937
0.0367006
0.0311789
0.0270937
0.0236682
0.0206631
0.0177962
0.015083
0.0125422
0.010171
0.00796638
0.00592659
0.00405002
0.00233485
0.000779225
-0.000618758
-0.00186105
-0.00294966
-0.00388668
-0.00467429
-0.0053147
-0.00581022
-0.00616323
-0.00637618
-0.00645162
-0.00639219
-0.00620058
-0.00587961
-0.0054322
-0.00486137
-0.00417026
-0.00336212
-0.00244031
-0.00140833
-0.000269759
0.000971651
0.00231201
0.0037473
0.00527336
0.00688584
0.00858027
0.010352
0.0121961
0.0141077
0.0160816
0.0181125
0.0201948
0.0223228
0.0244908
0.0266926
0.0289221
0.031173
0.0334387
0.0357126
0.0379879
0.0402577
0.0425149
0.0447525
0.0469633
0.04914
0.0512753
0.0533619
0.0553925
0.0573599
0.0592567
0.0610759
0.0628104
0.0644533
0.0659979
0.0674375
0.0687659
0.0699771
0.0710651
0.0720246
0.0728503
0.0735375
0.0740817
0.074479
0.0747256
0.0748186
0.074755
0.0745327
0.0741498
0.0736049
0.072897
0.0720257
0.0709909
0.0697928
0.0684322
0.0669101
0.0652277
0.0633868
0.061389
0.0592365
0.0569315
0.0544763
0.0518719
0.0491192
0.0462401
0.0432531
0.0398896
0.0359204
0.031365
0.027111
0.0235449
0.0204178
0.0174358
0.0146152
0.0119755
0.00951364
0.00722636
0.0051118
0.00316806
0.00139305
-0.00021541
-0.00165953
-0.0029416
-0.00406398
-0.0050291
-0.00583946
-0.00649762
-0.00700621
-0.00736791
-0.00758549
-0.00766176
-0.00759963
-0.00740205
-0.00707208
-0.00661288
-0.00602764
-0.00531968
-0.00449244
-0.00354943
-0.00249426
-0.00133066
-6.2474e-05
0.00130632
0.00277162
0.00432919
0.00597464
0.00770342
0.00951084
0.011392
0.013342
0.0153554
0.0174271
0.0195514
0.0217227
0.023935
0.0261824
0.0284585
0.0307571
0.0330716
0.0353952
0.0377211
0.0400423
0.0423518
0.0446423
0.0469066
0.0491372
0.0513268
0.0534679
0.0555529
0.0575746
0.0595254
0.0613979
0.063185
0.0648794
0.0664742
0.0679625
0.0693377
0.0705934
0.0717235
0.0727223
0.0735841
0.074304
0.074877
0.0752988
0.0755655
0.0756735
0.0756197
0.0754015
0.0750167
0.0744635
0.0737407
0.0728475
0.0717835
0.0705488
0.0691437
0.0675691
0.0658262
0.0639164
0.0618414
0.0596033
0.0572043
0.0546467
0.0519316
0.0490601
0.046055
0.0429361
0.0394228
0.0352761
0.0313671
0.0269446
0.0232381
0.0199891
0.0168922
0.0139643
0.0112258
0.00867352
0.00630386
0.0041148
0.00210422
0.000269746
-0.00139106
-0.00288072
-0.00420186
-0.00535718
-0.00634941
-0.00718139
-0.00785599
-0.00837617
-0.00874491
-0.00896526
-0.00904031
-0.00897324
-0.00876726
-0.00842565
-0.00795178
-0.00734906
-0.006621
-0.00577119
-0.0048033
-0.00372109
-0.00252839
-0.00122917
0.000172493
0.00167242
0.0032663
0.00494969
0.00671797
0.00856641
0.0104901
0.0124839
0.0145427
0.0166611
0.0188335
0.0210541
0.023317
0.0256163
0.0279455
0.0302984
0.0326682
0.0350482
0.0374315
0.0398111
0.0421797
0.04453
0.0468548
0.0491463
0.0513971
0.0535996
0.055746
0.0578288
0.0598404
0.0617731
0.0636193
0.0653718
0.0670232
0.0685664
0.0699945
0.0713008
0.0724788
0.0735224
0.0744257
0.0751833
0.0757899
0.0762408
0.0765317
0.0766587
0.0766183
0.0764074
0.0760236
0.0754648
0.0747294
0.0738163
0.0727247
0.0714545
0.070006
0.0683796
0.0665765
0.064598
0.0624457