/*--------------------------------*- C++ -*----------------------------------*\
| =========                 |                                                 |
| \\      /  F ield         | OpenFOAM: The Open Source CFD Toolbox           |
|  \\    /   O peration     | Version:  2.3.0                                 |
|   \\  /    A nd           | Web:      www.OpenFOAM.org                      |
|    \\/     M anipulation  |                                                 |
\*---------------------------------------------------------------------------*/
FoamFile
{
    version     2.0;
    format      ascii;
    class       surfaceScalarField;
    location    "0.5";
    object      phi;
}
// * * * * * * * * * * * * * * * * * * * * * * * * * * * * * * * * * * * * * //

dimensions      [0 3 -1 0 0 0 0];

internalField   nonuniform List<scalar> 
19800
(
7.18634e-11
-7.18617e-11
2.47594e-10
-1.75725e-10
4.41572e-10
-1.93974e-10
5.94352e-10
-1.52777e-10
6.71839e-10
-7.74856e-11
6.55188e-10
1.66521e-11
5.3494e-10
1.20251e-10
3.07572e-10
2.2737e-10
-2.66566e-11
3.34229e-10
-4.65043e-10
4.38387e-10
-1.00329e-09
5.38246e-10
-1.63603e-09
6.32739e-10
-2.35718e-09
7.21156e-10
-3.16022e-09
8.03035e-10
-4.0383e-09
8.78085e-10
-4.98444e-09
9.46142e-10
-5.99157e-09
1.00713e-09
-7.05262e-09
1.06104e-09
-8.16054e-09
1.10793e-09
-9.3084e-09
1.14786e-09
-1.04894e-08
1.18097e-09
-1.16968e-08
1.20739e-09
-1.2924e-08
1.22727e-09
-1.41648e-08
1.2408e-09
-1.5413e-08
1.24814e-09
-1.66625e-08
1.2495e-09
-1.79076e-08
1.24508e-09
-1.91426e-08
1.23508e-09
-2.03624e-08
1.21971e-09
-2.15616e-08
1.19919e-09
-2.27353e-08
1.17372e-09
-2.38788e-08
1.14352e-09
-2.49876e-08
1.10881e-09
-2.60574e-08
1.06982e-09
-2.70842e-08
1.02675e-09
-2.8064e-08
9.7984e-10
-2.89933e-08
9.29299e-10
-2.98687e-08
8.75353e-10
-3.06869e-08
8.18227e-10
-3.1445e-08
7.58145e-10
-3.21404e-08
6.95334e-10
-3.27704e-08
6.30022e-10
-3.33328e-08
5.62437e-10
-3.38256e-08
4.92812e-10
-3.4247e-08
4.21382e-10
-3.45954e-08
3.48382e-10
-3.48695e-08
2.74059e-10
-3.50681e-08
1.9865e-10
-3.51905e-08
1.22403e-10
-3.52361e-08
4.55711e-11
-3.52045e-08
-3.15939e-11
-3.50957e-08
-1.08834e-10
-3.49098e-08
-1.85886e-10
-3.46473e-08
-2.62485e-10
-3.43089e-08
-3.38361e-10
-3.38957e-08
-4.13242e-10
-3.34088e-08
-4.86852e-10
-3.28499e-08
-5.58912e-10
-3.22208e-08
-6.2914e-10
-3.15235e-08
-6.97251e-10
-3.07606e-08
-7.6296e-10
-2.99346e-08
-8.25981e-10
-2.90486e-08
-8.86028e-10
-2.81057e-08
-9.42812e-10
-2.71097e-08
-9.9605e-10
-2.60642e-08
-1.04546e-09
-2.49735e-08
-1.09075e-09
-2.38418e-08
-1.13166e-09
-2.26739e-08
-1.16791e-09
-2.14746e-08
-1.19924e-09
-2.02493e-08
-1.22539e-09
-1.90031e-08
-1.24612e-09
-1.7742e-08
-1.26117e-09
-1.64716e-08
-1.27034e-09
-1.51982e-08
-1.2734e-09
-1.39281e-08
-1.27016e-09
-1.26676e-08
-1.26044e-09
-1.14235e-08
-1.24407e-09
-1.02026e-08
-1.2209e-09
-9.0118e-09
-1.19084e-09
-7.85804e-09
-1.15377e-09
-6.7484e-09
-1.10963e-09
-5.68999e-09
-1.05841e-09
-4.68988e-09
-1.00011e-09
-3.75509e-09
-9.34794e-10
-2.89251e-09
-8.62583e-10
-2.10883e-09
-7.83678e-10
-1.41046e-09
-6.98373e-10
-8.03364e-10
-6.07092e-10
-2.92931e-10
-5.10434e-10
1.16312e-10
-4.09243e-10
4.21037e-10
-3.04721e-10
6.19641e-10
-1.98601e-10
7.1308e-10
-9.34385e-11
7.06182e-10
6.89664e-12
6.09755e-10
9.64235e-11
4.43898e-10
1.65855e-10
2.43601e-10
2.00297e-10
6.81758e-11
1.75425e-10
6.81753e-11
1.7574e-10
-2.47604e-10
4.83742e-10
-4.83725e-10
7.80152e-10
-4.90383e-10
9.60592e-10
-3.33218e-10
9.52484e-10
-6.93788e-11
7.09259e-10
2.59875e-10
2.03719e-10
6.25789e-10
-5.77428e-10
1.00852e-09
-1.6376e-09
1.39441e-09
-2.97323e-09
1.77401e-09
-4.57573e-09
2.14076e-09
-6.43303e-09
2.49004e-09
-8.53054e-09
2.81866e-09
-1.08519e-08
3.1244e-09
-1.33796e-08
3.40577e-09
-1.60952e-08
3.6618e-09
-1.898e-08
3.89193e-09
-2.20149e-08
4.0959e-09
-2.51807e-08
4.27371e-09
-2.84583e-08
4.42549e-09
-3.18289e-08
4.55157e-09
-3.52739e-08
4.65235e-09
-3.8775e-08
4.72835e-09
-4.23143e-08
4.78014e-09
-4.58745e-08
4.80835e-09
-4.94387e-08
4.81367e-09
-5.29904e-08
4.79682e-09
-5.65139e-08
4.75855e-09
-5.99938e-08
4.69962e-09
-6.34154e-08
4.62082e-09
-6.67647e-08
4.52296e-09
-7.0028e-08
4.40686e-09
-7.31925e-08
4.27334e-09
-7.62459e-08
4.12323e-09
-7.91766e-08
3.95739e-09
-8.19734e-08
3.77664e-09
-8.46259e-08
3.58186e-09
-8.71245e-08
3.3739e-09
-8.94599e-08
3.15362e-09
-9.16236e-08
2.92189e-09
-9.36079e-08
2.6796e-09
-9.54055e-08
2.42763e-09
-9.70099e-08
2.16687e-09
-9.84154e-08
1.89824e-09
-9.96166e-08
1.62263e-09
-1.00609e-07
1.34098e-09
-1.01389e-07
1.05423e-09
-1.01954e-07
7.63316e-10
-1.02301e-07
4.69202e-10
-1.02428e-07
1.72862e-10
-1.02335e-07
-1.24714e-10
-1.02021e-07
-4.22523e-10
-1.01488e-07
-7.1955e-10
-1.00735e-07
-1.01477e-09
-9.97666e-08
-1.30713e-09
-9.85843e-08
-1.59558e-09
-9.71921e-08
-1.87906e-09
-9.55945e-08
-2.15648e-09
-9.37969e-08
-2.42677e-09
-9.18053e-08
-2.68882e-09
-8.96267e-08
-2.94155e-09
-8.72689e-08
-3.18385e-09
-8.47403e-08
-3.41462e-09
-8.20503e-08
-3.63277e-09
-7.92092e-08
-3.8372e-09
-7.62278e-08
-4.02684e-09
-7.31179e-08
-4.20063e-09
-6.9892e-08
-4.3575e-09
-6.65635e-08
-4.49645e-09
-6.31463e-08
-4.61647e-09
-5.96551e-08
-4.71659e-09
-5.61053e-08
-4.79589e-09
-5.2513e-08
-4.85348e-09
-4.88948e-08
-4.88853e-09
-4.5268e-08
-4.90025e-09
-4.16502e-08
-4.88793e-09
-3.80597e-08
-4.85092e-09
-3.45151e-08
-4.78865e-09
-3.10354e-08
-4.70064e-09
-2.76397e-08
-4.58651e-09
-2.43475e-08
-4.446e-09
-2.11781e-08
-4.27897e-09
-1.81511e-08
-4.08543e-09
-1.52856e-08
-3.86559e-09
-1.26006e-08
-3.61985e-09
-1.01143e-08
-3.3489e-09
-7.8442e-09
-3.05373e-09
-5.8068e-09
-2.73577e-09
-4.01691e-09
-2.39698e-09
-2.48729e-09
-2.04005e-09
-1.22788e-09
-1.66865e-09
-2.44782e-10
-1.28782e-09
4.61142e-10
-9.04524e-10
8.96232e-10
-5.28528e-10
1.07679e-09
-1.73664e-10
1.03293e-09
1.40287e-10
8.13687e-10
3.85097e-10
4.93146e-10
5.20836e-10
1.75326e-10
4.93244e-10
2.43502e-10
1.94703e-10
-4.42305e-10
4.92616e-10
-7.81635e-10
7.16649e-10
-7.14414e-10
7.41079e-10
-3.57646e-10
4.74736e-10
1.96966e-10
-1.44643e-10
8.79254e-10
-1.15608e-09
1.63722e-09
-2.58062e-09
2.43306e-09
-4.42564e-09
3.23943e-09
-6.6882e-09
4.03657e-09
-9.35763e-09
4.81019e-09
-1.24175e-08
5.54996e-09
-1.58473e-08
6.24842e-09
-1.96231e-08
6.90025e-09
-2.37191e-08
7.50173e-09
-2.81076e-08
8.05033e-09
-3.27602e-08
8.54445e-09
-3.76474e-08
8.9832e-09
-4.274e-08
9.36622e-09
-4.80081e-08
9.69362e-09
-5.34224e-08
9.96585e-09
-5.89536e-08
1.01836e-08
-6.45732e-08
1.03479e-08
-7.02528e-08
1.04598e-08
-7.59649e-08
1.05205e-08
-8.16828e-08
1.05316e-08
-8.73804e-08
1.04944e-08
-9.30323e-08
1.04105e-08
-9.86142e-08
1.02815e-08
-1.04103e-07
1.01092e-08
-1.09475e-07
9.89523e-09
-1.14709e-07
9.64134e-09
-1.19785e-07
9.34933e-09
-1.24683e-07
9.02099e-09
-1.29384e-07
8.65817e-09
-1.3387e-07
8.2627e-09
-1.38125e-07
7.83645e-09
-1.42132e-07
7.38129e-09
-1.45877e-07
6.89913e-09
-1.49347e-07
6.39187e-09
-1.52529e-07
5.86145e-09
-1.55411e-07
5.30981e-09
-1.57983e-07
4.73892e-09
-1.60236e-07
4.15077e-09
-1.62161e-07
3.54738e-09
-1.63751e-07
2.93077e-09
-1.64999e-07
2.30301e-09
-1.65902e-07
1.66618e-09
-1.66455e-07
1.02241e-09
-1.66656e-07
3.73823e-10
-1.66504e-07
-2.77394e-10
-1.65997e-07
-9.29041e-10
-1.65138e-07
-1.57889e-09
-1.63928e-07
-2.22468e-09
-1.62371e-07
-2.86412e-09
-1.60472e-07
-3.4949e-09
-1.58236e-07
-4.11469e-09
-1.55671e-07
-4.72113e-09
-1.52786e-07
-5.31185e-09
-1.49591e-07
-5.88446e-09
-1.46096e-07
-6.43657e-09
-1.42314e-07
-6.96579e-09
-1.38259e-07
-7.46972e-09
-1.33945e-07
-7.94597e-09
-1.2939e-07
-8.39219e-09
-1.24611e-07
-8.80604e-09
-1.19627e-07
-9.18521e-09
-1.14457e-07
-9.52743e-09
-1.09123e-07
-9.8305e-09
-1.03647e-07
-1.00923e-08
-9.80527e-08
-1.03107e-08
-9.23648e-08
-1.04837e-08
-8.66087e-08
-1.06096e-08
-8.08109e-08
-1.06864e-08
-7.49986e-08
-1.07126e-08
-6.91999e-08
-1.06866e-08
-6.34436e-08
-1.06072e-08
-5.77591e-08
-1.04732e-08
-5.21762e-08
-1.02836e-08
-4.67249e-08
-1.00377e-08
-4.14357e-08
-9.7352e-09
-3.63389e-08
-9.37585e-09
-3.14644e-08
-8.95991e-09
-2.6842e-08
-8.48802e-09
-2.25005e-08
-7.96136e-09
-1.84677e-08
-7.38167e-09
-1.47699e-08
-6.75149e-09
-1.14314e-08
-6.07429e-09
-8.47361e-09
-5.35475e-09
-5.91452e-09
-4.59914e-09
-3.76735e-09
-3.81582e-09
-2.03919e-09
-3.01598e-09
-7.29085e-10
-2.21463e-09
1.74452e-10
-1.43207e-09
6.96627e-10
-6.95839e-10
8.80393e-10
-4.34787e-11
7.91322e-10
4.74166e-10
5.22757e-10
7.89398e-10
2.00757e-10
8.15243e-10
4.44259e-10
1.55167e-10
-5.9747e-10
3.40412e-10
-9.66877e-10
3.68668e-10
-7.42667e-10
1.05846e-10
-9.48231e-11
-5.46592e-10
8.49405e-10
-1.65796e-09
1.99062e-09
-3.27336e-09
3.25263e-09
-5.41833e-09
4.57804e-09
-8.10279e-09
5.9239e-09
-1.13243e-08
7.25811e-09
-1.50709e-08
8.55676e-09
-1.9323e-08
9.80208e-09
-2.40555e-08
1.09809e-08
-2.92389e-08
1.20836e-08
-3.48404e-08
1.31033e-08
-4.08251e-08
1.4035e-08
-4.71561e-08
1.48755e-08
-5.37957e-08
1.56228e-08
-6.07054e-08
1.62759e-08
-6.78464e-08
1.68347e-08
-7.51801e-08
1.72995e-08
-8.26678e-08
1.76714e-08
-9.02717e-08
1.79517e-08
-9.79541e-08
1.81422e-08
-1.05679e-07
1.82449e-08
-1.13409e-07
1.82621e-08
-1.21111e-07
1.81961e-08
-1.2875e-07
1.80497e-08
-1.36294e-07
1.78254e-08
-1.43711e-07
1.75261e-08
-1.5097e-07
1.71548e-08
-1.58043e-07
1.67143e-08
-1.64902e-07
1.62079e-08
-1.71519e-07
1.56385e-08
-1.7787e-07
1.50092e-08
-1.83931e-07
1.43234e-08
-1.89679e-07
1.35841e-08
-1.95092e-07
1.27947e-08
-2.00152e-07
1.19585e-08
-2.04838e-07
1.10786e-08
-2.09135e-07
1.01586e-08
-2.13027e-07
9.20181e-09
-2.165e-07
8.21161e-09
-2.19541e-07
7.19149e-09
-2.22138e-07
6.14495e-09
-2.24283e-07
5.07553e-09
-2.25967e-07
3.98683e-09
-2.27183e-07
2.88248e-09
-2.27927e-07
1.76616e-09
-2.28195e-07
6.41602e-10
-2.27985e-07
-4.87415e-10
-2.27297e-07
-1.61706e-09
-2.26132e-07
-2.74346e-09
-2.24494e-07
-3.86269e-09
-2.22388e-07
-4.97078e-09
-2.19819e-07
-6.06371e-09
-2.16796e-07
-7.13745e-09
-2.13329e-07
-8.18791e-09
-2.0943e-07
-9.21099e-09
-2.05112e-07
-1.02026e-08
-2.0039e-07
-1.11585e-08
-1.95281e-07
-1.20747e-08
-1.89804e-07
-1.29469e-08
-1.83979e-07
-1.37712e-08
-1.77828e-07
-1.45434e-08
-1.71374e-07
-1.52595e-08
-1.64644e-07
-1.59156e-08
-1.57663e-07
-1.65078e-08
-1.50462e-07
-1.70323e-08
-1.43068e-07
-1.74854e-08
-1.35515e-07
-1.78637e-08
-1.27835e-07
-1.81637e-08
-1.20063e-07
-1.83824e-08
-1.12232e-07
-1.85167e-08
-1.04381e-07
-1.85638e-08
-9.65463e-08
-1.85214e-08
-8.87663e-08
-1.83872e-08
-8.108e-08
-1.81595e-08
-7.35269e-08
-1.78367e-08
-6.61468e-08
-1.74178e-08
-5.89797e-08
-1.69023e-08
-5.20654e-08
-1.62902e-08
-4.54432e-08
-1.55821e-08
-3.91516e-08
-1.47796e-08
-3.32281e-08
-1.38849e-08
-2.77083e-08
-1.29015e-08
-2.26257e-08
-1.18341e-08
-1.80108e-08
-1.06892e-08
-1.38903e-08
-9.47528e-09
-1.02859e-08
-8.20349e-09
-7.21329e-09
-6.88845e-09
-4.68003e-09
-5.54924e-09
-2.68379e-09
-4.21087e-09
-1.20966e-09
-2.9062e-09
-2.27093e-10
-1.67841e-09
3.13788e-10
-5.8436e-10
4.8645e-10
3.01504e-10
3.92575e-10
8.83274e-10
1.6801e-10
1.03981e-09
6.1227e-10
8.23266e-11
-6.79795e-10
8.36464e-11
-9.68193e-10
-1.7366e-10
-4.85359e-10
-8.20976e-10
5.52494e-10
-1.95626e-09
1.98469e-09
-3.64963e-09
3.68399e-09
-5.94765e-09
5.55064e-09
-8.87716e-09
7.50756e-09
-1.24488e-08
9.49549e-09
-1.66597e-08
1.1469e-08
-2.14964e-08
1.33935e-08
-2.69369e-08
1.52425e-08
-3.29521e-08
1.69962e-08
-3.95079e-08
1.86395e-08
-4.65661e-08
2.01614e-08
-5.40852e-08
2.15541e-08
-6.20218e-08
2.2812e-08
-7.03306e-08
2.39316e-08
-7.89655e-08
2.49108e-08
-8.78798e-08
2.5749e-08
-9.70265e-08
2.64463e-08
-1.06359e-07
2.70039e-08
-1.15831e-07
2.74237e-08
-1.25397e-07
2.77079e-08
-1.35011e-07
2.78594e-08
-1.44631e-07
2.78814e-08
-1.54212e-07
2.77775e-08
-1.63714e-07
2.75513e-08
-1.73095e-07
2.7207e-08
-1.82318e-07
2.67486e-08
-1.91344e-07
2.61807e-08
-2.00137e-07
2.55075e-08
-2.08662e-07
2.47337e-08
-2.16888e-07
2.3864e-08
-2.24782e-07
2.2903e-08
-2.32314e-07
2.18557e-08
-2.39457e-07
2.0727e-08
-2.46184e-07
1.95217e-08
-2.5247e-07
1.82449e-08
-2.58293e-07
1.69016e-08
-2.63632e-07
1.54971e-08
-2.68466e-07
1.40363e-08
-2.72779e-07
1.25246e-08
-2.76555e-07
1.09674e-08
-2.7978e-07
9.36981e-09
-2.82442e-07
7.73742e-09
-2.84531e-07
6.07569e-09
-2.86039e-07
4.39018e-09
-2.86959e-07
2.68652e-09
-2.87288e-07
9.70423e-10
-2.87023e-07
-7.5233e-10
-2.86164e-07
-2.47589e-09
-2.84713e-07
-4.19432e-09
-2.82674e-07
-5.90164e-09
-2.80053e-07
-7.5918e-09
-2.76858e-07
-9.25866e-09
-2.731e-07
-1.08961e-08
-2.6879e-07
-1.24978e-08
-2.63943e-07
-1.40576e-08
-2.58576e-07
-1.55693e-08
-2.52708e-07
-1.70264e-08
-2.4636e-07
-1.84228e-08
-2.39555e-07
-1.97523e-08
-2.32318e-07
-2.10084e-08
-2.24676e-07
-2.21853e-08
-2.16659e-07
-2.32766e-08
-2.08298e-07
-2.42766e-08
-1.99626e-07
-2.51793e-08
-1.90679e-07
-2.59791e-08
-1.81494e-07
-2.66704e-08
-1.7211e-07
-2.72481e-08
-1.62567e-07
-2.7707e-08
-1.52906e-07
-2.80425e-08
-1.43173e-07
-2.82502e-08
-1.33411e-07
-2.8326e-08
-1.23666e-07
-2.82663e-08
-1.13985e-07
-2.80681e-08
-1.04416e-07
-2.77286e-08
-9.50065e-08
-2.7246e-08
-8.58054e-08
-2.66188e-08
-7.6861e-08
-2.58467e-08
-6.82214e-08
-2.49298e-08
-5.99339e-08
-2.38696e-08
-5.20449e-08
-2.26686e-08
-4.45988e-08
-2.13309e-08
-3.76383e-08
-1.98621e-08
-3.12026e-08
-1.82698e-08
-2.53275e-08
-1.65643e-08
-2.00441e-08
-1.47587e-08
-1.53772e-08
-1.28704e-08
-1.13445e-08
-1.09211e-08
-7.95445e-09
-8.93926e-09
-5.2044e-09
-6.96092e-09
-3.07806e-09
-5.03253e-09
-1.54282e-09
-3.21365e-09
-5.46571e-10
-1.58061e-09
-1.40971e-11
-2.30969e-10
1.5696e-10
7.12219e-10
1.01484e-10
1.09528e-09
7.13757e-10
-8.93947e-12
-6.70855e-10
-2.37734e-10
-7.39395e-10
-8.4299e-10
1.19898e-10
-1.94496e-09
1.65447e-09
-3.63486e-09
3.6746e-09
-5.97879e-09
6.02792e-09
-9.02096e-09
8.5928e-09
-1.27867e-08
1.12733e-08
-1.72854e-08
1.39941e-08
-2.25126e-08
1.66963e-08
-2.84529e-08
1.93338e-08
-3.50814e-08
2.1871e-08
-4.23658e-08
2.42806e-08
-5.02677e-08
2.65414e-08
-5.87442e-08
2.86379e-08
-6.77484e-08
3.05583e-08
-7.72308e-08
3.22945e-08
-8.714e-08
3.38408e-08
-9.74231e-08
3.51939e-08
-1.08026e-07
3.63523e-08
-1.18896e-07
3.73158e-08
-1.29978e-07
3.80855e-08
-1.41217e-07
3.86637e-08
-1.52563e-07
3.90531e-08
-1.63961e-07
3.92576e-08
-1.75361e-07
3.92813e-08
-1.86712e-07
3.91289e-08
-1.97966e-07
3.88056e-08
-2.09076e-07
3.83167e-08
-2.19996e-07
3.7668e-08
-2.3068e-07
3.68656e-08
-2.41088e-07
3.59155e-08
-2.51179e-07
3.48241e-08
-2.60913e-07
3.35979e-08
-2.70253e-07
3.22435e-08
-2.79165e-07
3.07677e-08
-2.87616e-07
2.91774e-08
-2.95573e-07
2.74794e-08
-3.03009e-07
2.56808e-08
-3.09896e-07
2.37887e-08
-3.16209e-07
2.18103e-08
-3.21926e-07
1.97529e-08
-3.27025e-07
1.7624e-08
-3.31489e-07
1.54309e-08
-3.353e-07
1.31812e-08
-3.38446e-07
1.08827e-08
-3.40913e-07
8.54289e-09
-3.42692e-07
6.1698e-09
-3.43777e-07
3.77133e-09
-3.44162e-07
1.35552e-09
-3.43845e-07
-1.06947e-09
-3.42826e-07
-3.49539e-09
-3.41106e-07
-5.91391e-09
-3.38691e-07
-8.31659e-09
-3.35588e-07
-1.06949e-08
-3.31806e-07
-1.30402e-08
-3.27359e-07
-1.5344e-08
-3.22259e-07
-1.75973e-08
-3.16525e-07
-1.97915e-08
-3.10177e-07
-2.19178e-08
-3.03236e-07
-2.39674e-08
-2.95727e-07
-2.59315e-08
-2.87678e-07
-2.78013e-08
-2.79118e-07
-2.95681e-08
-2.7008e-07
-3.12234e-08
-2.60598e-07
-3.27587e-08
-2.50709e-07
-3.41657e-08
-2.40452e-07
-3.54362e-08
-2.29869e-07
-3.65623e-08
-2.19003e-07
-3.75366e-08
-2.07899e-07
-3.83516e-08
-1.96606e-07
-3.90005e-08
-1.85172e-07
-3.94767e-08
-1.73647e-07
-3.97743e-08
-1.62086e-07
-3.98878e-08
-1.5054e-07
-3.98123e-08
-1.39064e-07
-3.95437e-08
-1.27714e-07
-3.90785e-08
-1.16546e-07
-3.84143e-08
-1.05615e-07
-3.75496e-08
-9.4978e-08
-3.64839e-08
-8.46897e-08
-3.5218e-08
-7.48049e-08
-3.37544e-08
-6.53766e-08
-3.2097e-08
-5.64555e-08
-3.02519e-08
-4.80901e-08
-2.82275e-08
-4.03249e-08
-2.6035e-08
-3.32002e-08
-2.3689e-08
-2.67508e-08
-2.12082e-08
-2.10047e-08
-1.86165e-08
-1.59817e-08
-1.59441e-08
-1.1692e-08
-1.3229e-08
-8.13365e-09
-1.05192e-08
-5.29122e-09
-7.87496e-09
-3.13285e-09
-5.37202e-09
-1.60795e-09
-3.10552e-09
-6.44273e-10
-1.19464e-09
-1.44876e-10
2.12825e-10
1.58831e-11
9.34526e-10
7.29642e-10
-1.09735e-10
-5.61119e-10
-5.9669e-10
-2.52437e-10
-1.59093e-09
1.11413e-09
-3.19605e-09
3.25959e-09
-5.49198e-09
5.97054e-09
-8.53705e-09
9.07299e-09
-1.237e-08
1.24258e-08
-1.70123e-08
1.59156e-08
-2.247e-08
1.94518e-08
-2.8736e-08
2.29623e-08
-3.57919e-08
2.63897e-08
-4.36098e-08
2.96889e-08
-5.2154e-08
3.28247e-08
-6.1382e-08
3.57695e-08
-7.12466e-08
3.85024e-08
-8.16961e-08
4.10078e-08
-9.26757e-08
4.32741e-08
-1.04128e-07
4.52935e-08
-1.15995e-07
4.70609e-08
-1.28217e-07
4.85737e-08
-1.40732e-07
4.98312e-08
-1.53481e-07
5.08344e-08
-1.66403e-07
5.15856e-08
-1.79438e-07
5.20884e-08
-1.92528e-07
5.23473e-08
-2.05614e-07
5.23674e-08
-2.1864e-07
5.21548e-08
-2.3155e-07
5.17161e-08
-2.44292e-07
5.10581e-08
-2.56812e-07
5.01884e-08
-2.69061e-07
4.91147e-08
-2.80991e-07
4.78451e-08
-2.92555e-07
4.6388e-08
-3.03709e-07
4.47517e-08
-3.14411e-07
4.29452e-08
-3.2462e-07
4.09773e-08
-3.343e-07
3.88571e-08
-3.43414e-07
3.65938e-08
-3.5193e-07
3.41966e-08
-3.59817e-07
3.16752e-08
-3.67045e-07
2.9039e-08
-3.7359e-07
2.62978e-08
-3.79428e-07
2.34615e-08
-3.84537e-07
2.05398e-08
-3.88899e-07
1.7543e-08
-3.92497e-07
1.44813e-08
-3.95319e-07
1.13649e-08
-3.97354e-07
8.20428e-09
-3.98592e-07
5.01011e-09
-3.9903e-07
1.79309e-09
-3.98663e-07
-1.43594e-09
-3.97493e-07
-4.66599e-09
-3.95521e-07
-7.88595e-09
-3.92753e-07
-1.10846e-08
-3.89197e-07
-1.42506e-08
-3.84865e-07
-1.73726e-08
-3.7977e-07
-2.04389e-08
-3.73929e-07
-2.3438e-08
-3.67362e-07
-2.63584e-08
-3.60092e-07
-2.91882e-08
-3.52143e-07
-3.19159e-08
-3.43545e-07
-3.45299e-08
-3.34328e-07
-3.70185e-08
-3.24526e-07
-3.93702e-08
-3.14175e-07
-4.15737e-08
-3.03316e-07
-4.36179e-08
-2.9199e-07
-4.54918e-08
-2.80242e-07
-4.71846e-08
-2.68118e-07
-4.86861e-08
-2.55668e-07
-4.99863e-08
-2.42944e-07
-5.10755e-08
-2.3e-07
-5.19449e-08
-2.1689e-07
-5.2586e-08
-2.03674e-07
-5.2991e-08
-1.90409e-07
-5.31528e-08
-1.77156e-07
-5.30652e-08
-1.63976e-07
-5.27231e-08
-1.50933e-07
-5.21221e-08
-1.38088e-07
-5.12594e-08
-1.25504e-07
-5.01331e-08
-1.13245e-07
-4.87432e-08
-1.01372e-07
-4.70912e-08
-8.99453e-08
-4.51808e-08
-7.90248e-08
-4.30175e-08
-6.86666e-08
-4.06101e-08
-5.89242e-08
-3.79699e-08
-4.9847e-08
-3.51122e-08
-4.14795e-08
-3.20565e-08
-3.386e-08
-2.88277e-08
-2.70198e-08
-2.54567e-08
-2.09814e-08
-2.19824e-08
-1.57574e-08
-1.8453e-08
-1.13483e-08
-1.49283e-08
-7.74115e-09
-1.14822e-08
-4.90731e-09
-8.20585e-09
-2.80081e-09
-5.21202e-09
-1.35607e-09
-2.63937e-09
-4.86015e-10
-6.57228e-10
-7.98693e-11
5.28384e-10
6.49775e-10
-2.14671e-10
-3.46448e-10
-9.75311e-10
5.08207e-10
-2.38369e-09
2.52251e-09
-4.52363e-09
5.39953e-09
-7.46071e-09
8.90762e-09
-1.12427e-08
1.2855e-08
-1.59004e-08
1.70835e-08
-2.14493e-08
2.14645e-08
-2.78905e-08
2.58931e-08
-3.52129e-08
3.02847e-08
-4.33944e-08
3.45711e-08
-5.24033e-08
3.86978e-08
-6.22001e-08
4.26215e-08
-7.27387e-08
4.6308e-08
-8.39672e-08
4.9731e-08
-9.58297e-08
5.28703e-08
-1.08267e-07
5.5711e-08
-1.21216e-07
5.82426e-08
-1.34613e-07
6.0458e-08
-1.48393e-07
6.23535e-08
-1.62489e-07
6.39275e-08
-1.76835e-07
6.51808e-08
-1.91366e-07
6.61159e-08
-2.06014e-07
6.67367e-08
-2.20715e-07
6.70486e-08
-2.35406e-07
6.7058e-08
-2.50023e-07
6.6772e-08
-2.64506e-07
6.61987e-08
-2.78794e-07
6.53468e-08
-2.92831e-07
6.42255e-08
-3.06561e-07
6.28446e-08
-3.1993e-07
6.12142e-08
-3.32887e-07
5.93448e-08
-3.45383e-07
5.72472e-08
-3.5737e-07
5.49324e-08
-3.68804e-07
5.24118e-08
-3.79644e-07
4.96968e-08
-3.8985e-07
4.67992e-08
-3.99384e-07
4.37309e-08
-4.08213e-07
4.05039e-08
-4.16304e-07
3.71305e-08
-4.23629e-07
3.36231e-08
-4.30162e-07
2.99942e-08
-4.35879e-07
2.62566e-08
-4.40759e-07
2.24231e-08
-4.44784e-07
1.85068e-08
-4.47941e-07
1.45209e-08
-4.50215e-07
1.04788e-08
-4.51599e-07
6.39399e-09
-4.52086e-07
2.28022e-09
-4.51673e-07
-1.84864e-09
-4.50361e-07
-5.97856e-09
-4.48151e-07
-1.00953e-08
-4.45051e-07
-1.41847e-08
-4.4107e-07
-1.8232e-08
-4.3622e-07
-2.22229e-08
-4.30516e-07
-2.61426e-08
-4.23978e-07
-2.99763e-08
-4.16627e-07
-3.37092e-08
-4.08489e-07
-3.73265e-08
-3.99591e-07
-4.08133e-08
-3.89966e-07
-4.41548e-08
-3.79648e-07
-4.73364e-08
-3.68675e-07
-5.03434e-08
-3.57088e-07
-5.31614e-08
-3.44929e-07
-5.57764e-08
-3.32246e-07
-5.81744e-08
-3.19089e-07
-6.0342e-08
-3.05509e-07
-6.2266e-08
-2.91562e-07
-6.39339e-08
-2.77303e-07
-6.53337e-08
-2.62794e-07
-6.64542e-08
-2.48096e-07
-6.72846e-08
-2.33271e-07
-6.78155e-08
-2.18386e-07
-6.8038e-08
-2.03507e-07
-6.79445e-08
-1.88701e-07
-6.75287e-08
-1.74038e-07
-6.67854e-08
-1.59586e-07
-6.57114e-08
-1.45414e-07
-6.43048e-08
-1.31591e-07
-6.25658e-08
-1.18186e-07
-6.04969e-08
-1.05263e-07
-5.8103e-08
-9.28889e-08
-5.53921e-08
-8.11239e-08
-5.23751e-08
-7.00264e-08
-4.90673e-08
-5.96505e-08
-4.54881e-08
-5.00446e-08
-4.16624e-08
-4.12509e-08
-3.76213e-08
-3.33043e-08
-3.34033e-08
-2.62306e-08
-2.90561e-08
-2.00456e-08
-2.4638e-08
-1.47537e-08
-2.02203e-08
-1.03459e-08
-1.58899e-08
-6.79921e-09
-1.17526e-08
-4.07445e-09
-7.93678e-09
-2.11555e-09
-4.59827e-09
-8.48384e-10
-1.92439e-09
-1.80274e-10
-1.39724e-10
4.69502e-10
-3.20527e-10
-2.59191e-11
-1.36195e-09
1.54963e-09
-3.19813e-09
4.35868e-09
-5.89178e-09
8.09318e-09
-9.49229e-09
1.25081e-08
-1.40349e-08
1.73975e-08
-1.95406e-08
2.25893e-08
-2.60173e-08
2.79411e-08
-3.34597e-08
3.33355e-08
-4.18514e-08
3.86764e-08
-5.11656e-08
4.38853e-08
-6.13664e-08
4.88987e-08
-7.24102e-08
5.36652e-08
-8.42465e-08
5.81443e-08
-9.68194e-08
6.2304e-08
-1.10069e-07
6.61194e-08
-1.2393e-07
6.95722e-08
-1.38336e-07
7.26489e-08
-1.53218e-07
7.53404e-08
-1.68506e-07
7.76415e-08
-1.84129e-07
7.95497e-08
-2.00013e-07
8.10655e-08
-2.16089e-07
8.21914e-08
-2.32284e-07
8.29319e-08
-2.48529e-07
8.3293e-08
-2.64753e-07
8.32822e-08
-2.80889e-07
8.29081e-08
-2.9687e-07
8.21802e-08
-3.12633e-07
8.1109e-08
-3.28113e-07
7.97057e-08
-3.4325e-07
7.79821e-08
-3.57987e-07
7.59505e-08
-3.72266e-07
7.36238e-08
-3.86034e-07
7.10152e-08
-3.99239e-07
6.81382e-08
-4.11834e-07
6.50068e-08
-4.23773e-07
6.16351e-08
-4.35011e-07
5.80376e-08
-4.45509e-07
5.42289e-08
-4.55229e-07
5.0224e-08
-4.64137e-07
4.60381e-08
-4.722e-07
4.16864e-08
-4.7939e-07
3.71845e-08
-4.85682e-07
3.25481e-08
-4.91052e-07
2.77933e-08
-4.95481e-07
2.29361e-08
-4.98953e-07
1.7993e-08
-5.01455e-07
1.29806e-08
-5.02977e-07
7.9155e-09
-5.03511e-07
2.81484e-09
-5.03056e-07
-2.30425e-09
-5.0161e-07
-7.42439e-09
-4.99177e-07
-1.2528e-08
-4.95764e-07
-1.75974e-08
-4.91382e-07
-2.26146e-08
-4.86043e-07
-2.75617e-08
-4.79765e-07
-3.24204e-08
-4.72569e-07
-3.71726e-08
-4.64478e-07
-4.17999e-08
-4.55521e-07
-4.62841e-08
-4.45727e-07
-5.06067e-08
-4.35132e-07
-5.47497e-08
-4.23774e-07
-5.86949e-08
-4.11693e-07
-6.24243e-08
-3.98934e-07
-6.59203e-08
-3.85545e-07
-6.91654e-08
-3.71577e-07
-7.21426e-08
-3.57083e-07
-7.48355e-08
-3.42121e-07
-7.7228e-08
-3.2675e-07
-7.93047e-08
-3.11033e-07
-8.1051e-08
-2.95034e-07
-8.24531e-08
-2.78821e-07
-8.34983e-08
-2.62461e-07
-8.41748e-08
-2.46027e-07
-8.44721e-08
-2.2959e-07
-8.43811e-08
-2.13225e-07
-8.38944e-08
-1.97004e-07
-8.30059e-08
-1.81004e-07
-8.17119e-08
-1.65298e-07
-8.00106e-08
-1.49961e-07
-7.79027e-08
-1.35066e-07
-7.53916e-08
-1.20685e-07
-7.24839e-08
-1.06888e-07
-6.91897e-08
-9.374e-08
-6.5523e-08
-8.13047e-08
-6.15026e-08
-6.96402e-08
-5.71526e-08
-5.87993e-08
-5.25033e-08
-4.88282e-08
-4.75924e-08
-3.97655e-08
-4.2466e-08
-3.16413e-08
-3.71803e-08
-2.44757e-08
-3.18036e-08
-1.82777e-08
-2.64182e-08
-1.30444e-08
-2.11233e-08
-8.7594e-09
-1.60376e-08
-5.3926e-09
-1.13036e-08
-2.89925e-09
-7.09162e-09
-1.2201e-09
-3.60354e-09
-2.82005e-10
-1.07782e-09
1.87496e-10
-4.25415e-10
3.99497e-10
-1.74916e-09
2.87338e-09
-4.01867e-09
6.62819e-09
-7.27543e-09
1.13499e-08
-1.15517e-08
1.67844e-08
-1.6869e-08
2.27148e-08
-2.32374e-08
2.89577e-08
-3.06554e-08
3.53591e-08
-3.91105e-08
4.17906e-08
-4.858e-08
4.81459e-08
-5.90314e-08
5.43368e-08
-7.04239e-08
6.02912e-08
-8.27093e-08
6.59506e-08
-9.58326e-08
7.12677e-08
-1.09734e-07
7.6205e-08
-1.24348e-07
8.07333e-08
-1.39606e-07
8.48303e-08
-1.55437e-07
8.84798e-08
-1.71767e-07
9.16705e-08
-1.88521e-07
9.43954e-08
-2.05622e-07
9.66514e-08
-2.22995e-07
9.84383e-08
-2.40562e-07
9.97587e-08
-2.58248e-07
1.00617e-07
-2.75976e-07
1.01021e-07
-2.93673e-07
1.00979e-07
-3.11266e-07
1.00501e-07
-3.28683e-07
9.9597e-08
-3.45854e-07
9.82806e-08
-3.62713e-07
9.65646e-08
-3.79194e-07
9.44631e-08
-3.95234e-07
9.19908e-08
-4.10773e-07
8.91628e-08
-4.25753e-07
8.59951e-08
-4.40119e-07
8.25038e-08
-4.53818e-07
7.87057e-08
-4.668e-07
7.46178e-08
-4.7902e-07
7.02575e-08
-4.90434e-07
6.56425e-08
-5.01001e-07
6.07908e-08
-5.10683e-07
5.57205e-08
-5.19447e-07
5.04503e-08
-5.27262e-07
4.49989e-08
-5.34099e-07
3.93853e-08
-5.39935e-07
3.36289e-08
-5.44747e-07
2.77491e-08
-5.4852e-07
2.17657e-08
-5.51238e-07
1.56988e-08
-5.52891e-07
9.5686e-09
-5.53472e-07
3.39568e-09
-5.52977e-07
-2.79923e-09
-5.51407e-07
-8.99514e-09
-5.48764e-07
-1.51709e-08
-5.45056e-07
-2.1305e-08
-5.40295e-07
-2.73759e-08
-5.34495e-07
-3.33619e-08
-5.27674e-07
-3.9241e-08
-5.19855e-07
-4.49914e-08
-5.11064e-07
-5.05909e-08
-5.01331e-07
-5.60176e-08
-4.90688e-07
-6.12493e-08
-4.79174e-07
-6.62643e-08
-4.66828e-07
-7.10406e-08
-4.53695e-07
-7.55568e-08
-4.39824e-07
-7.97916e-08
-4.25265e-07
-8.37241e-08
-4.10074e-07
-8.7334e-08
-3.94308e-07
-9.06015e-08
-3.78028e-07
-9.35074e-08
-3.613e-07
-9.60334e-08
-3.44189e-07
-9.8162e-08
-3.26765e-07
-9.98769e-08
-3.091e-07
-1.01163e-07
-2.91269e-07
-1.02006e-07
-2.73347e-07
-1.02394e-07
-2.55411e-07
-1.02317e-07
-2.37541e-07
-1.01764e-07
-2.19816e-07
-1.00731e-07
-2.02316e-07
-9.92119e-08
-1.85121e-07
-9.72057e-08
-1.6831e-07
-9.47135e-08
-1.51962e-07
-9.17399e-08
-1.36153e-07
-8.82931e-08
-1.20957e-07
-8.43855e-08
-1.06446e-07
-8.00342e-08
-9.26863e-08
-7.5262e-08
-7.97414e-08
-7.00974e-08
-6.76682e-08
-6.45765e-08
-5.65173e-08
-5.87433e-08
-4.63318e-08
-5.26515e-08
-3.71464e-08
-4.63657e-08
-2.89864e-08
-3.99636e-08
-2.18668e-08
-3.35378e-08
-1.57915e-08
-2.71986e-08
-1.07525e-08
-2.10766e-08
-6.72978e-09
-1.53263e-08
-3.69127e-09
-1.01301e-08
-1.59348e-09
-5.70132e-09
-3.83084e-10
-2.28822e-09
-1.9559e-10
-5.28263e-10
9.27755e-10
-2.13228e-09
4.47739e-09
-4.83505e-09
9.33095e-09
-8.65743e-09
1.51723e-08
-1.36144e-08
2.17414e-08
-1.97131e-08
2.88135e-08
-2.69516e-08
3.61961e-08
-3.53184e-08
4.37259e-08
-4.47927e-08
5.12649e-08
-5.53443e-08
5.86975e-08
-6.69347e-08
6.59272e-08
-7.95175e-08
7.2874e-08
-9.30391e-08
7.94722e-08
-1.0744e-07
8.56686e-08
-1.22655e-07
9.14202e-08
-1.38615e-07
9.66936e-08
-1.55248e-07
1.01463e-07
-1.72476e-07
1.05708e-07
-1.90222e-07
1.09417e-07
-2.08407e-07
1.1258e-07
-2.26949e-07
1.15193e-07
-2.45767e-07
1.17257e-07
-2.6478e-07
1.18772e-07
-2.83908e-07
1.19745e-07
-3.03069e-07
1.20183e-07
-3.22187e-07
1.20096e-07
-3.41182e-07
1.19496e-07
-3.59979e-07
1.18394e-07
-3.78504e-07
1.16806e-07
-3.96686e-07
1.14747e-07
-4.14455e-07
1.12232e-07
-4.31744e-07
1.0928e-07
-4.48489e-07
1.05907e-07
-4.64627e-07
1.02134e-07
-4.80101e-07
9.79776e-08
-4.94854e-07
9.34589e-08
-5.08834e-07
8.85976e-08
-5.21991e-07
8.34142e-08
-5.34278e-07
7.79295e-08
-5.45652e-07
7.21649e-08
-5.56073e-07
6.61418e-08
-5.65505e-07
5.98823e-08
-5.73915e-07
5.34085e-08
-5.81272e-07
4.6743e-08
-5.87552e-07
3.99085e-08
-5.92731e-07
3.29283e-08
-5.96791e-07
2.58256e-08
-5.99717e-07
1.86244e-08
-6.01497e-07
1.13485e-08
-6.02123e-07
4.02223e-09
-6.01592e-07
-3.3298e-09
-5.99905e-07
-1.06828e-08
-5.97064e-07
-1.80116e-08
-5.93078e-07
-2.52909e-08
-5.87959e-07
-3.24953e-08
-5.81722e-07
-3.9599e-08
-5.74387e-07
-4.65761e-08
-5.65977e-07
-5.34006e-08
-5.56522e-07
-6.00467e-08
-5.46051e-07
-6.64882e-08
-5.34601e-07
-7.26991e-08
-5.22212e-07
-7.86536e-08
-5.08926e-07
-8.43261e-08
-4.94792e-07
-8.96911e-08
-4.7986e-07
-9.47236e-08
-4.64185e-07
-9.93992e-08
-4.47825e-07
-1.03694e-07
-4.30842e-07
-1.07584e-07
-4.13302e-07
-1.11048e-07
-3.95272e-07
-1.14064e-07
-3.76823e-07
-1.1661e-07
-3.5803e-07
-1.1867e-07
-3.3897e-07
-1.20224e-07
-3.1972e-07
-1.21256e-07
-3.00361e-07
-1.21753e-07
-2.80977e-07
-1.21701e-07
-2.61649e-07
-1.21092e-07
-2.42464e-07
-1.19916e-07
-2.23505e-07
-1.18171e-07
-2.04858e-07
-1.15853e-07
-1.86606e-07
-1.12965e-07
-1.68833e-07
-1.09513e-07
-1.5162e-07
-1.05506e-07
-1.35047e-07
-1.00959e-07
-1.19187e-07
-9.58933e-08
-1.04115e-07
-9.03344e-08
-8.98964e-08
-8.4316e-08
-7.65935e-08
-7.78795e-08
-6.42616e-08
-7.10753e-08
-5.29488e-08
-6.39643e-08
-4.26953e-08
-5.66192e-08
-3.35324e-08
-4.91265e-08
-2.54817e-08
-4.15885e-08
-1.8555e-08
-3.41253e-08
-1.27536e-08
-2.68779e-08
-8.06856e-09
-2.00114e-08
-4.48107e-09
-1.37176e-08
-1.9637e-09
-8.21869e-09
-4.82366e-10
-3.76955e-09
-6.77959e-10
-6.2849e-10
1.55624e-09
-2.50851e-09
6.35741e-09
-5.64076e-09
1.24632e-08
-1.00265e-08
1.9558e-08
-1.56636e-08
2.73785e-08
-2.25447e-08
3.56946e-08
-3.06553e-08
4.43068e-08
-3.99734e-08
5.3044e-08
-5.04689e-08
6.17604e-08
-6.21038e-08
7.03324e-08
-7.48326e-08
7.8656e-08
-8.86027e-08
8.6644e-08
-1.03355e-07
9.42244e-08
-1.19025e-07
1.01338e-07
-1.35542e-07
1.07938e-07
-1.52833e-07
1.13984e-07
-1.7082e-07
1.1945e-07
-1.89423e-07
1.24311e-07
-2.08558e-07
1.28553e-07
-2.28143e-07
1.32165e-07
-2.48092e-07
1.35142e-07
-2.6832e-07
1.37484e-07
-2.88741e-07
1.39193e-07
-3.09269e-07
1.40273e-07
-3.29821e-07
1.40735e-07
-3.50314e-07
1.40589e-07
-3.70665e-07
1.39847e-07
-3.90795e-07
1.38524e-07
-4.10626e-07
1.36637e-07
-4.30083e-07
1.34203e-07
-4.49091e-07
1.31241e-07
-4.67581e-07
1.27769e-07
-4.85484e-07
1.2381e-07
-5.02735e-07
1.19385e-07
-5.19272e-07
1.14515e-07
-5.35036e-07
1.09223e-07
-5.49972e-07
1.03533e-07
-5.64026e-07
9.74681e-08
-5.77149e-07
9.10529e-08
-5.89296e-07
8.4312e-08
-6.00425e-07
7.72705e-08
-6.10497e-07
6.99539e-08
-6.19476e-07
6.23881e-08
-6.27332e-07
5.45991e-08
-6.34038e-07
4.66138e-08
-6.39568e-07
3.84589e-08
-6.43904e-07
3.01617e-08
-6.4703e-07
2.175e-08
-6.48933e-07
1.32515e-08
-6.49605e-07
4.69467e-09
-6.49043e-07
-3.89195e-09
-6.47246e-07
-1.24794e-08
-6.44219e-07
-2.10386e-08
-6.3997e-07
-2.954e-08
-6.34512e-07
-3.7954e-08
-6.2786e-07
-4.62506e-08
-6.20036e-07
-5.43998e-08
-6.11065e-07
-6.23714e-08
-6.00977e-07
-7.01352e-08
-5.89804e-07
-7.76609e-08
-5.77585e-07
-8.49185e-08