/*--------------------------------*- C++ -*----------------------------------*\
| =========                 |                                                 |
| \\      /  F ield         | OpenFOAM: The Open Source CFD Toolbox           |
|  \\    /   O peration     | Version:  2.3.0                                 |
|   \\  /    A nd           | Web:      www.OpenFOAM.org                      |
|    \\/     M anipulation  |                                                 |
\*---------------------------------------------------------------------------*/
FoamFile
{
    version     2.0;
    format      ascii;
    class       volVectorField;
    location    "0.5";
    object      U;
}
// * * * * * * * * * * * * * * * * * * * * * * * * * * * * * * * * * * * * * //

dimensions      [0 1 -1 0 0 0 0];

internalField   nonuniform List<vector> 
10000
(
(3.06219e-06 -3.06141e-06 0)
(1.52554e-05 -7.90211e-06 0)
(3.47247e-05 -9.1414e-06 0)
(5.30943e-05 -7.90495e-06 0)
(6.52129e-05 -5.35386e-06 0)
(6.85833e-05 -2.16155e-06 0)
(6.19061e-05 1.2984e-06 0)
(4.45846e-05 4.81331e-06 0)
(1.64899e-05 8.26208e-06 0)
(-2.22065e-05 1.15751e-05 0)
(-7.11387e-05 1.47122e-05 0)
(-0.000129812 1.76493e-05 0)
(-0.000197648 2.03728e-05 0)
(-0.000274009 2.28753e-05 0)
(-0.000358224 2.51536e-05 0)
(-0.000449599 2.72074e-05 0)
(-0.000547428 2.90383e-05 0)
(-0.000651003 3.06494e-05 0)
(-0.000759617 3.20445e-05 0)
(-0.00087257 3.32284e-05 0)
(-0.000989173 3.42064e-05 0)
(-0.00110875 3.49841e-05 0)
(-0.00123064 3.55674e-05 0)
(-0.00135419 3.59625e-05 0)
(-0.00147878 3.61757e-05 0)
(-0.00160381 3.62134e-05 0)
(-0.00172868 3.60821e-05 0)
(-0.00185282 3.57883e-05 0)
(-0.00197568 3.53385e-05 0)
(-0.00209675 3.47393e-05 0)
(-0.00221552 3.39971e-05 0)
(-0.00233149 3.31186e-05 0)
(-0.00244421 3.21101e-05 0)
(-0.00255325 3.09781e-05 0)
(-0.00265817 2.97292e-05 0)
(-0.00275859 2.83696e-05 0)
(-0.00285413 2.69059e-05 0)
(-0.00294445 2.53445e-05 0)
(-0.0030292 2.36918e-05 0)
(-0.00310809 2.19542e-05 0)
(-0.00318083 2.01382e-05 0)
(-0.00324715 1.82503e-05 0)
(-0.00330683 1.62971e-05 0)
(-0.00335964 1.42851e-05 0)
(-0.00340539 1.22209e-05 0)
(-0.00344391 1.01114e-05 0)
(-0.00347506 7.96345e-06 0)
(-0.00349872 5.78381e-06 0)
(-0.00351479 3.57954e-06 0)
(-0.0035232 1.35782e-06 0)
(-0.0035239 -8.74131e-07 0)
(-0.00351688 -3.10896e-06 0)
(-0.00350214 -5.33918e-06 0)
(-0.0034797 -7.55714e-06 0)
(-0.00344964 -9.75512e-06 0)
(-0.00341203 -1.19253e-05 0)
(-0.00336699 -1.40597e-05 0)
(-0.00331466 -1.61503e-05 0)
(-0.00325521 -1.81889e-05 0)
(-0.00318884 -2.01673e-05 0)
(-0.00311576 -2.20771e-05 0)
(-0.00303625 -2.39101e-05 0)
(-0.00295057 -2.56577e-05 0)
(-0.00285905 -2.73116e-05 0)
(-0.00276201 -2.88635e-05 0)
(-0.00265984 -3.03049e-05 0)
(-0.00255293 -3.16275e-05 0)
(-0.0024417 -3.28231e-05 0)
(-0.0023266 -3.38836e-05 0)
(-0.00220812 -3.48011e-05 0)
(-0.00208676 -3.55678e-05 0)
(-0.00196305 -3.6176e-05 0)
(-0.00183755 -3.66187e-05 0)
(-0.00171083 -3.68886e-05 0)
(-0.00158349 -3.69791e-05 0)
(-0.00145616 -3.68839e-05 0)
(-0.00132947 -3.6597e-05 0)
(-0.00120408 -3.61128e-05 0)
(-0.00108067 -3.54264e-05 0)
(-0.000959918 -3.45331e-05 0)
(-0.00084252 -3.34292e-05 0)
(-0.000729182 -3.21113e-05 0)
(-0.000620612 -3.05771e-05 0)
(-0.00051752 -2.88247e-05 0)
(-0.000420612 -2.68538e-05 0)
(-0.000330586 -2.46649e-05 0)
(-0.000248122 -2.22606e-05 0)
(-0.00017388 -1.96455e-05 0)
(-0.00010848 -1.68272e-05 0)
(-5.24975e-05 -1.38176e-05 0)
(-6.43381e-06 -1.06354e-05 0)
(2.93069e-05 -7.30945e-06 0)
(5.44627e-05 -3.88534e-06 0)
(6.89779e-05 -4.37914e-07 0)
(7.3109e-05 2.90669e-06 0)
(6.75875e-05 5.93211e-06 0)
(5.38489e-05 8.26502e-06 0)
(3.45062e-05 9.24371e-06 0)
(1.47515e-05 7.75228e-06 0)
(2.82357e-06 2.82384e-06 0)
(7.90173e-06 -1.52476e-05 0)
(3.20836e-05 -3.2067e-05 0)
(6.46101e-05 -3.43438e-05 0)
(9.07829e-05 -2.63374e-05 0)
(0.000100841 -1.19817e-05 0)
(8.91323e-05 6.05268e-06 0)
(5.21778e-05 2.60196e-05 0)
(-1.19488e-05 4.67758e-05 0)
(-0.000104009 6.75721e-05 0)
(-0.000223939 8.79125e-05 0)
(-0.000371088 0.000107466 0)
(-0.000544397 0.000126008 0)
(-0.000742508 0.000143388 0)
(-0.000963861 0.000159506 0)
(-0.00120675 0.000174298 0)
(-0.00146937 0.000187726 0)
(-0.00174985 0.000199769 0)
(-0.0020463 0.000210425 0)
(-0.0023568 0.000219697 0)
(-0.00267944 0.000227602 0)
(-0.00301231 0.00023416 0)
(-0.00335354 0.000239396 0)
(-0.00370128 0.000243341 0)
(-0.00405374 0.000246027 0)
(-0.00440914 0.000247491 0)
(-0.00476577 0.00024777 0)
(-0.00512196 0.000246902 0)
(-0.00547611 0.000244928 0)
(-0.00582664 0.000241889 0)
(-0.00617208 0.000237826 0)
(-0.00651096 0.000232782 0)
(-0.00684192 0.0002268 0)
(-0.00716362 0.000219922 0)
(-0.00747481 0.000212193 0)
(-0.0077743 0.000203655 0)
(-0.00806093 0.000194352 0)
(-0.00833365 0.000184329 0)
(-0.00859144 0.00017363 0)
(-0.00883336 0.000162298 0)
(-0.00905851 0.000150379 0)
(-0.0092661 0.000137918 0)
(-0.00945536 0.00012496 0)
(-0.00962562 0.000111551 0)
(-0.00977625 9.77369e-05 0)
(-0.0099067 8.35643e-05 0)
(-0.0100165 6.90807e-05 0)
(-0.0101052 5.43341e-05 0)
(-0.0101725 3.93725e-05 0)
(-0.0102181 2.42452e-05 0)
(-0.0102419 9.002e-06 0)
(-0.0102436 -6.30651e-06 0)
(-0.0102233 -2.1629e-05 0)
(-0.0101809 -3.69134e-05 0)
(-0.0101165 -5.2107e-05 0)
(-0.0100304 -6.71562e-05 0)
(-0.00992278 -8.20069e-05 0)
(-0.00979395 -9.66042e-05 0)
(-0.00964434 -0.000110893 0)
(-0.00947444 -0.000124817 0)
(-0.00928481 -0.00013832 0)
(-0.00907612 -0.000151345 0)
(-0.0088491 -0.000163836 0)
(-0.00860456 -0.000175736 0)
(-0.00834339 -0.000186988 0)
(-0.00806657 -0.000197536 0)
(-0.00777516 -0.000207322 0)
(-0.0074703 -0.000216293 0)
(-0.0071532 -0.000224394 0)
(-0.00682514 -0.00023157 0)
(-0.0064875 -0.000237771 0)
(-0.00614171 -0.000242944 0)
(-0.00578927 -0.000247042 0)
(-0.00543176 -0.000250017 0)
(-0.00507082 -0.000251825 0)
(-0.00470814 -0.000252425 0)
(-0.00434547 -0.000251778 0)
(-0.0039846 -0.000249848 0)
(-0.00362738 -0.000246603 0)
(-0.0032757 -0.000242017 0)
(-0.00293146 -0.000236068 0)
(-0.00259658 -0.000228737 0)
(-0.00227303 -0.000220014 0)
(-0.00196274 -0.000209895 0)
(-0.00166765 -0.000198385 0)
(-0.00138967 -0.000185499 0)
(-0.00113066 -0.000171264 0)
(-0.000892434 -0.000155725 0)
(-0.000676684 -0.000138943 0)
(-0.000484989 -0.000121009 0)
(-0.000318743 -0.00010205 0)
(-0.000179104 -8.22423e-05 0)
(-6.69013e-05 -6.18355e-05 0)
(1.74765e-05 -4.1185e-05 0)
(7.42486e-05 -2.08074e-05 0)
(0.000104477 -1.46653e-06 0)
(0.00011039 1.56926e-05 0)
(9.57462e-05 2.8948e-05 0)
(6.64085e-05 3.57048e-05 0)
(3.22218e-05 3.22195e-05 0)
(7.74404e-06 1.474e-05 0)
(9.1685e-06 -3.47378e-05 0)
(3.44978e-05 -6.46297e-05 0)
(6.36375e-05 -6.33529e-05 0)
(7.90006e-05 -3.98937e-05 0)
(6.88033e-05 -1.60517e-06 0)
(2.57197e-05 4.60153e-05 0)
(-5.50992e-05 9.9009e-05 0)
(-0.000176554 0.000154575 0)
(-0.00033998 0.000210742 0)
(-0.000545527 0.000266122 0)
(-0.000792458 0.000319731 0)
(-0.00107938 0.000370876 0)
(-0.00140441 0.000419063 0)
(-0.0017653 0.000463951 0)
(-0.00215955 0.000505304 0)
(-0.00258446 0.000542967 0)
(-0.00303723 0.000576848 0)
(-0.00351494 0.0006069 0)
(-0.00401466 0.000633111 0)
(-0.00453343 0.0006555 0)
(-0.00506827 0.000674105 0)
(-0.00561626 0.000688984 0)
(-0.00617451 0.000700208 0)
(-0.00674016 0.000707859 0)
(-0.00731042 0.000712029 0)
(-0.00788258 0.000712816 0)
(-0.00845399 0.000710324 0)
(-0.00902207 0.000704663 0)
(-0.00958436 0.000695945 0)
(-0.0101384 0.000684285 0)
(-0.010682 0.000669803 0)
(-0.0112129 0.000652618 0)
(-0.0117289 0.000632852 0)
(-0.0122281 0.000610629 0)
(-0.0127085 0.000586072 0)
(-0.0131682 0.000559307 0)
(-0.0136057 0.000530461 0)
(-0.0140191 0.00049966 0)
(-0.0144071 0.000467033 0)
(-0.0147682 0.00043271 0)
(-0.0151011 0.00039682 0)
(-0.0154046 0.000359496 0)
(-0.0156776 0.000320869 0)
(-0.015919 0.000281075 0)
(-0.0161281 0.000240248 0)
(-0.016304 0.000198526 0)
(-0.016446 0.000156049 0)
(-0.0165537 0.000112956 0)
(-0.0166266 6.93903e-05 0)
(-0.0166644 2.54966e-05 0)
(-0.0166668 -1.85784e-05 0)
(-0.0166338 -6.26861e-05 0)
(-0.0165655 -0.000106676 0)
(-0.0164619 -0.000150395 0)
(-0.0163235 -0.000193688 0)
(-0.0161506 -0.0002364 0)
(-0.0159436 -0.000278372 0)
(-0.0157034 -0.000319445 0)
(-0.0154307 -0.000359458 0)
(-0.0151264 -0.00039825 0)
(-0.0147916 -0.000435657 0)
(-0.0144274 -0.000471517 0)
(-0.0140352 -0.000505668 0)
(-0.0136164 -0.000537948 0)
(-0.0131726 -0.000568196 0)
(-0.0127054 -0.000596251 0)
(-0.0122167 -0.000621958 0)
(-0.0117085 -0.000645162 0)
(-0.0111828 -0.000665711 0)
(-0.0106417 -0.000683459 0)
(-0.0100876 -0.000698263 0)
(-0.00952289 -0.000709988 0)
(-0.00895005 -0.000718503 0)
(-0.00837168 -0.000723686 0)
(-0.00779049 -0.000725423 0)
(-0.00720923 -0.000723609 0)
(-0.00663077 -0.000718151 0)
(-0.006058 -0.000708967 0)
(-0.00549388 -0.000695987 0)
(-0.00494143 -0.00067916 0)
(-0.00440366 -0.000658448 0)
(-0.00388361 -0.000633837 0)
(-0.0033843 -0.000605334 0)
(-0.00290873 -0.000572973 0)
(-0.00245984 -0.000536822 0)
(-0.00204046 -0.000496989 0)
(-0.00165331 -0.000453631 0)
(-0.00130093 -0.00040697 0)
(-0.000985634 -0.000357308 0)
(-0.000709409 -0.000305058 0)
(-0.000473847 -0.000250775 0)
(-0.000280004 -0.000195217 0)
(-0.000128241 -0.000139421 0)
(-1.80043e-05 -8.48182e-05 0)
(5.24603e-05 -3.33995e-05 0)
(8.64661e-05 1.20501e-05 0)
(8.92327e-05 4.76526e-05 0)
(6.83645e-05 6.81015e-05 0)
(3.58232e-05 6.64312e-05 0)
(9.25243e-06 3.44944e-05 0)
(7.99998e-06 -5.32465e-05 0)
(2.67993e-05 -9.10809e-05 0)
(4.08591e-05 -7.88592e-05 0)
(3.22349e-05 -3.10205e-05 0)
(-1.14386e-05 4.14483e-05 0)
(-9.82496e-05 0.000130057 0)
(-0.000233731 0.000228399 0)
(-0.00042132 0.000331735 0)
(-0.000662706 0.000436582 0)
(-0.000958189 0.000540383 0)
(-0.00130699 0.000641266 0)
(-0.00170747 0.00073786 0)
(-0.00215738 0.000829166 0)
(-0.00265395 0.000914466 0)
(-0.00319403 0.000993247 0)
(-0.00377423 0.00106516 0)
(-0.00439094 0.00112997 0)
(-0.00504042 0.00118756 0)
(-0.00571884 0.00123786 0)
(-0.00642234 0.00128087 0)
(-0.00714703 0.00131664 0)
(-0.00788905 0.00134526 0)
(-0.00864457 0.00136685 0)
(-0.0094098 0.00138155 0)
(-0.010181 0.00138952 0)
(-0.0109547 0.00139094 0)
(-0.0117271 0.001386 0)
(-0.012495 0.00137491 0)
(-0.013255 0.00135787 0)
(-0.0140038 0.00133511 0)
(-0.0147383 0.00130685 0)
(-0.0154557 0.00127332 0)
(-0.0161529 0.00123476 0)
(-0.0168274 0.00119139 0)
(-0.0174764 0.00114348 0)
(-0.0180976 0.00109124 0)
(-0.0186886 0.00103494 0)
(-0.0192471 0.000974822 0)
(-0.0197712 0.000911132 0)
(-0.020259 0.000844127 0)
(-0.0207086 0.00077406 0)
(-0.0211184 0.000701189 0)
(-0.021487 0.000625776 0)
(-0.0218129 0.000548083 0)
(-0.0220951 0.000468375 0)
(-0.0223325 0.000386923 0)
(-0.0225241 0.000304 0)
(-0.0226692 0.000219881 0)
(-0.0227673 0.000134846 0)
(-0.022818 4.91795e-05 0)
(-0.0228209 -3.68318e-05 0)
(-0.022776 -0.000122897 0)
(-0.0226833 -0.000208719 0)
(-0.0225431 -0.000294002 0)
(-0.0223557 -0.000378442 0)
(-0.0221217 -0.000461734 0)
(-0.0218419 -0.00054357 0)
(-0.0215172 -0.000623638 0)
(-0.0211486 -0.000701625 0)
(-0.0207373 -0.000777216 0)
(-0.0202849 -0.000850097 0)
(-0.019793 -0.00091995 0)
(-0.0192632 -0.000986461 0)
(-0.0186975 -0.00104932 0)
(-0.0180981 -0.0011082 0)
(-0.0174673 -0.00116281 0)
(-0.0168074 -0.00121285 0)
(-0.0161212 -0.001258 0)
(-0.0154114 -0.00129799 0)
(-0.0146809 -0.00133253 0)
(-0.0139328 -0.00136136 0)
(-0.0131703 -0.0013842 0)
(-0.0123968 -0.00140082 0)
(-0.0116157 -0.00141098 0)
(-0.0108307 -0.00141447 0)
(-0.0100455 -0.0014111 0)
(-0.0092638 -0.00140069 0)
(-0.0084895 -0.0013831 0)
(-0.00772655 -0.00135821 0)
(-0.0069789 -0.00132593 0)
(-0.00625055 -0.00128621 0)
(-0.0055455 -0.00123904 0)
(-0.00486771 -0.00118447 0)
(-0.00422108 -0.00112257 0)
(-0.00360942 -0.00105353 0)
(-0.0030364 -0.000977582 0)
(-0.00250548 -0.000895075 0)
(-0.0020199 -0.000806483 0)
(-0.00158253 -0.000712441 0)
(-0.00119582 -0.00061379 0)
(-0.00086168 -0.000511644 0)
(-0.000581317 -0.000407481 0)
(-0.000355049 -0.000303264 0)
(-0.000182084 -0.000201613 0)
(-6.02267e-05 -0.000106033 0)
(1.4457e-05 -2.12218e-05 0)
(4.79506e-05 4.65602e-05 0)
(4.86984e-05 8.9128e-05 0)
(2.93922e-05 9.60501e-05 0)
(8.33583e-06 5.39442e-05 0)
(5.55284e-06 -6.57158e-05 0)
(1.28915e-05 -0.000101832 0)
(3.53142e-06 -6.92901e-05 0)
(-3.87442e-05 1.24029e-05 0)
(-0.000125784 0.00012874 0)
(-0.000265794 0.000268331 0)
(-0.000464468 0.000422347 0)
(-0.00072539 0.000584054 0)
(-0.00105036 0.000748345 0)
(-0.00143969 0.000911358 0)
(-0.00189252 0.00107018 0)
(-0.00240702 0.00122264 0)
(-0.00298059 0.00136708 0)
(-0.00361004 0.00150232 0)
(-0.00429173 0.00162746 0)
(-0.00502165 0.00174188 0)
(-0.00579554 0.00184517 0)
(-0.00660894 0.00193704 0)
(-0.00745728 0.00201737 0)
(-0.0083359 0.00208611 0)
(-0.00924012 0.00214331 0)
(-0.0101652 0.00218906 0)
(-0.0111066 0.00222354 0)
(-0.0120596 0.00224695 0)
(-0.0130197 0.00225952 0)
(-0.0139825 0.00226153 0)
(-0.0149436 0.00225328 0)
(-0.0158988 0.00223508 0)
(-0.0168439 0.00220726 0)
(-0.0177751 0.00217017 0)
(-0.0186884 0.00212416 0)
(-0.0195802 0.00206961 0)
(-0.020447 0.00200688 0)
(-0.0212854 0.00193635 0)
(-0.0220921 0.00185843 0)
(-0.0228642 0.00177349 0)
(-0.0235986 0.00168194 0)
(-0.0242927 0.00158417 0)
(-0.024944 0.00148061 0)
(-0.02555 0.00137165 0)
(-0.0261086 0.00125771 0)
(-0.0266177 0.00113921 0)
(-0.0270755 0.00101658 0)
(-0.0274803 0.000890248 0)
(-0.0278306 0.000760643 0)
(-0.0281253 0.000628208 0)
(-0.028363 0.000493387 0)
(-0.028543 0.000356632 0)
(-0.0286646 0.000218399 0)
(-0.0287271 7.91494e-05 0)
(-0.0287303 -6.06468e-05 0)
(-0.0286741 -0.000200515 0)
(-0.0285586 -0.000339976 0)
(-0.0283839 -0.000478543 0)
(-0.0281508 -0.000615724 0)
(-0.0278597 -0.000751023 0)
(-0.0275118 -0.000883939 0)
(-0.027108 -0.00101397 0)
(-0.0266498 -0.0011406 0)
(-0.0261387 -0.00126332 0)
(-0.0255765 -0.00138163 0)
(-0.0249651 -0.00149501 0)
(-0.0243068 -0.00160296 0)
(-0.0236041 -0.00170496 0)
(-0.0228594 -0.00180051 0)
(-0.0220757 -0.00188913 0)
(-0.021256 -0.00197031 0)
(-0.0204035 -0.00204359 0)
(-0.0195217 -0.0021085 0)
(-0.0186141 -0.00216458 0)
(-0.0176847 -0.00221142 0)
(-0.0167373 -0.00224859 0)
(-0.015776 -0.0022757 0)
(-0.0148052 -0.00229239 0)
(-0.0138293 -0.00229833 0)
(-0.0128528 -0.00229322 0)
(-0.0118804 -0.00227679 0)
(-0.0109167 -0.00224883 0)
(-0.00996655 -0.00220916 0)
(-0.00903482 -0.00215766 0)
(-0.00812635 -0.00209428 0)
(-0.00724596 -0.00201902 0)
(-0.00639844 -0.00193199 0)
(-0.00558849 -0.00183338 0)
(-0.00482065 -0.00172349 0)
(-0.0040993 -0.00160276 0)
(-0.00342855 -0.0014718 0)
(-0.00281219 -0.00133142 0)
(-0.00225356 -0.00118269 0)
(-0.00175551 -0.00102701 0)
(-0.00132021 -0.000866164 0)
(-0.00094899 -0.000702513 0)
(-0.000642214 -0.00053909 0)
(-0.000398991 -0.000379843 0)
(-0.000216949 -0.000229904 0)
(-9.19276e-05 -9.59424e-05 0)
(-1.77031e-05 1.34157e-05 0)
(1.43822e-05 8.7173e-05 0)
(1.66841e-05 0.000111491 0)
(6.1144e-06 6.80216e-05 0)
(2.48794e-06 -6.97131e-05 0)
(-4.6255e-06 -9.13246e-05 0)
(-4.30395e-05 -2.73927e-05 0)
(-0.000125819 9.84342e-05 0)
(-0.000263464 0.000268495 0)
(-0.000463795 0.000468725 0)
(-0.000732248 0.000688003 0)
(-0.00107223 0.000917649 0)
(-0.00148539 0.00115092 0)
(-0.00197194 0.00138259 0)
(-0.00253082 0.00160864 0)
(-0.00315998 0.00182598 0)
(-0.0038565 0.00203225 0)
(-0.00461684 0.00222567 0)
(-0.00543688 0.00240492 0)
(-0.00631211 0.00256903 0)
(-0.0072377 0.00271733 0)
(-0.00820858 0.00284936 0)
(-0.00921953 0.00296488 0)
(-0.0102652 0.00306377 0)
(-0.0113402 0.00314604 0)
(-0.0124391 0.00321182 0)
(-0.0135565 0.00326129 0)
(-0.0146871 0.00329473 0)
(-0.0158255 0.00331246 0)
(-0.0169667 0.00331485 0)
(-0.0181055 0.00330231 0)
(-0.019237 0.00327528 0)
(-0.0203563 0.00323423 0)
(-0.0214589 0.00317966 0)
(-0.0225402 0.00311207 0)
(-0.0235959 0.00303198 0)
(-0.0246218 0.00293995 0)
(-0.0256139 0.00283653 0)
(-0.0265686 0.00272227 0)
(-0.027482 0.00259775 0)
(-0.0283509 0.00246354 0)
(-0.0291721 0.00232024 0)
(-0.0299425 0.00216845 0)
(-0.0306593 0.00200875 0)
(-0.0313199 0.00184177 0)
(-0.0319219 0.00166811 0)
(-0.0324632 0.0014884 0)
(-0.0329418 0.00130327 0)
(-0.0333559 0.00111336 0)
(-0.0337041 0.000919313 0)
(-0.0339849 0.000721781 0)
(-0.0341975 0.000521427 0)
(-0.0343409 0.000318923 0)
(-0.0344145 0.000114947 0)
(-0.0344179 -8.98137e-05 0)
(-0.034351 -0.000294662 0)
(-0.034214 -0.000498895 0)
(-0.0340071 -0.000701799 0)
(-0.033731 -0.000902654 0)
(-0.0333865 -0.00110073 0)
(-0.0329747 -0.00129531 0)
(-0.0324969 -0.00148563 0)
(-0.0319548 -0.00167097 0)
(-0.0313501 -0.00185057 0)
(-0.0306851 -0.0020237 0)
(-0.0299619 -0.00218961 0)
(-0.0291833 -0.00234755 0)
(-0.0283521 -0.00249679 0)
(-0.0274714 -0.00263661 0)
(-0.0265445 -0.00276627 0)
(-0.025575 -0.00288508 0)
(-0.0245667 -0.00299235 0)
(-0.0235236 -0.0030874 0)
(-0.0224501 -0.00316958 0)
(-0.0213504 -0.00323828 0)
(-0.0202294 -0.0032929 0)
(-0.0190918 -0.00333289 0)
(-0.0179426 -0.00335773 0)
(-0.0167869 -0.00336695 0)
(-0.0156302 -0.00336012 0)
(-0.0144778 -0.0033369 0)
(-0.0133351 -0.00329697 0)
(-0.0122078 -0.00324011 0)
(-0.0111015 -0.00316619 0)
(-0.0100217 -0.00307513 0)
(-0.00897403 -0.00296701 0)
(-0.00796404 -0.002842 0)
(-0.00699708 -0.00270043 0)
(-0.00607838 -0.00254277 0)
(-0.0052129 -0.00236974 0)
(-0.00440531 -0.00218225 0)
(-0.00365988 -0.00198153 0)
(-0.00298038 -0.00176917 0)
(-0.00237001 -0.00154719 0)
(-0.00183118 -0.0013182 0)
(-0.00136543 -0.0010855 0)
(-0.000973235 -0.000853279 0)
(-0.000653777 -0.000626877 0)
(-0.000404749 -0.000413071 0)
(-0.000222098 -0.000220459 0)
(-9.97713e-05 -5.99272e-05 0)
(-2.93859e-05 5.49092e-05 0)
(2.57492e-07 0.000107117 0)
(3.24419e-06 7.42298e-05 0)
(-8.37788e-07 -6.39581e-05 0)
(-2.40991e-05 -5.6061e-05 0)
(-9.51437e-05 5.17827e-05 0)
(-0.000223054 0.000232812 0)
(-0.000416405 0.000466727 0)
(-0.000682243 0.000737113 0)
(-0.00102541 0.00103077 0)
(-0.00144884 0.00133718 0)
(-0.00195386 0.00164803 0)
(-0.00254037 0.00195675 0)
(-0.00320705 0.00225817 0)
(-0.00395154 0.00254826 0)
(-0.00477062 0.00282387 0)
(-0.00566035 0.00308261 0)
(-0.00661621 0.00332264 0)
(-0.00763324 0.0035426 0)
(-0.00870609 0.00374152 0)
(-0.00982916 0.00391874 0)
(-0.0109966 0.00407384 0)
(-0.0122025 0.00420662 0)
(-0.0134409 0.00431704 0)
(-0.0147056 0.00440521 0)
(-0.0159906 0.00447136 0)
(-0.01729 0.00451582 0)
(-0.0185977 0.00453898 0)
(-0.0199079 0.00454133 0)
(-0.0212149 0.0045234 0)
(-0.0225131 0.00448576 0)
(-0.023797 0.00442903 0)
(-0.0250614 0.00435388 0)
(-0.0263011 0.00426098 0)
(-0.0275112 0.00415104 0)
(-0.028687 0.0040248 0)
(-0.029824 0.00388299 0)
(-0.0309178 0.00372638 0)
(-0.0319643 0.00355575 0)
(-0.0329597 0.00337188 0)
(-0.0339002 0.00317558 0)
(-0.0347825 0.00296766 0)
(-0.0356034 0.00274894 0)
(-0.0363598 0.00252026 0)
(-0.0370491 0.00228245 0)
(-0.0376688 0.00203637 0)
(-0.0382166 0.00178289 0)
(-0.0386906 0.00152287 0)
(-0.039089 0.00125721 0)
(-0.0394103 0.000986789 0)
(-0.0396534 0.000712529 0)
(-0.0398172 0.000435344 0)
(-0.0399011 0.000156164 0)
(-0.0399047 -0.000124068 0)
(-0.0398278 -0.000404399 0)
(-0.0396706 -0.000683866 0)
(-0.0394334 -0.000961492 0)
(-0.039117 -0.00123629 0)
(-0.0387223 -0.00150728 0)
(-0.0382506 -0.00177345 0)
(-0.0377033 -0.00203379 0)
(-0.0370824 -0.00228729 0)
(-0.0363899 -0.00253294 0)
(-0.0356283 -0.00276972 0)
(-0.0348002 -0.00299662 0)
(-0.0339087 -0.00321263 0)
(-0.0329568 -0.00341676 0)
(-0.0319482 -0.003608 0)
(-0.0308868 -0.00378539 0)
(-0.0297764 -0.00394797 0)
(-0.0286215 -0.0040948 0)
(-0.0274267 -0.00422498 0)
(-0.0261968 -0.00433764 0)
(-0.0249368 -0.00443194 0)
(-0.023652 -0.00450709 0)
(-0.0223479 -0.00456235 0)
(-0.0210302 -0.00459703 0)
(-0.0197046 -0.00461051 0)
(-0.0183772 -0.00460223 0)
(-0.017054 -0.00457174 0)
(-0.0157413 -0.00451864 0)
(-0.0144453 -0.00444266 0)
(-0.0131723 -0.00434365 0)
(-0.0119286 -0.00422156 0)
(-0.0107205 -0.00407652 0)
(-0.00955398 -0.00390881 0)
(-0.0084352 -0.00371892 0)
(-0.00736989 -0.00350757 0)
(-0.00636358 -0.00327574 0)
(-0.00542143 -0.00302474 0)
(-0.00454816 -0.00275627 0)
(-0.00374793 -0.0024725 0)
(-0.00302427 -0.00217617 0)
(-0.0023799 -0.0018707 0)
(-0.00181662 -0.00156043 0)
(-0.00133511 -0.00125073 0)
(-0.000934801 -0.000948316 0)
(-0.000613668 -0.000661576 0)
(-0.000368041 -0.000400932 0)
(-0.000192365 -0.000179336 0)
(-7.89184e-05 -1.27324e-05 0)
(-1.82358e-05 7.93211e-05 0)
(8.62907e-08 7.12208e-05 0)
(-4.22999e-06 -4.78208e-05 0)
(-4.44915e-05 6.03628e-06 0)
(-0.00015026 0.000171439 0)
(-0.000326233 0.000419447 0)
(-0.000578707 0.000727675 0)
(-0.000913658 0.00107774 0)
(-0.00133507 0.0014546 0)
(-0.00184521 0.00184611 0)
(-0.00244485 0.00224247 0)
(-0.00313345 0.0026358 0)
(-0.00390932 0.00301984 0)
(-0.00476973 0.00338958 0)
(-0.00571109 0.00374109 0)
(-0.00672908 0.0040713 0)
(-0.00781879 0.00437785 0)
(-0.00897478 0.00465894 0)
(-0.0101913 0.00491327 0)
(-0.0114621 0.00513992 0)
(-0.0127811 0.00533829 0)
(-0.0141416 0.00550806 0)
(-0.015537 0.00564914 0)
(-0.0169608 0.0057616 0)
(-0.0184063 0.00584569 0)
(-0.0198669 0.0059018 0)
(-0.0213359 0.0059304 0)
(-0.0228071 0.00593208 0)
(-0.024274 0.0059075 0)
(-0.0257305 0.00585739 0)
(-0.0271706 0.00578252 0)
(-0.0285883 0.00568374 0)
(-0.029978 0.0055619 0)
(-0.0313342 0.00541792 0)
(-0.0326518 0.00525274 0)
(-0.0339256 0.00506731 0)
(-0.0351509 0.00486262 0)
(-0.036323 0.00463967 0)
(-0.0374378 0.0043995 0)
(-0.038491 0.00414313 0)
(-0.0394789 0.00387163 0)
(-0.0403978 0.00358606 0)
(-0.0412446 0.00328752 0)
(-0.0420161 0.00297709 0)
(-0.0427096 0.0026559 0)
(-0.0433227 0.00232506 0)
(-0.043853 0.00198572 0)
(-0.0442987 0.00163904 0)
(-0.0446581 0.00128618 0)
(-0.0449299 0.000928325 0)
(-0.045113 0.000566682 0)
(-0.0452067 0.000202462 0)
(-0.0452104 -0.000163107 0)
(-0.0451241 -0.000528781 0)
(-0.0449479 -0.000893303 0)
(-0.0446823 -0.0012554 0)
(-0.0443279 -0.0016138 0)
(-0.043886 -0.00196719 0)
(-0.0433578 -0.00231429 0)
(-0.0427452 -0.00265378 0)
(-0.0420502 -0.00298434 0)
(-0.0412751 -0.00330465 0)
(-0.0404225 -0.00361341 0)
(-0.0394956 -0.00390929 0)
(-0.0384976 -0.00419099 0)
(-0.037432 -0.00445721 0)
(-0.0363029 -0.00470667 0)
(-0.0351145 -0.00493811 0)
(-0.0338712 -0.0051503 0)
(-0.032578 -0.00534204 0)
(-0.0312398 -0.00551215 0)
(-0.029862 -0.00565952 0)
(-0.0284503 -0.00578308 0)
(-0.0270104 -0.0058818 0)
(-0.0255484 -0.00595476 0)
(-0.0240707 -0.00600107 0)
(-0.0225835 -0.00601996 0)
(-0.0210936 -0.00601072 0)
(-0.0196077 -0.00597279 0)
(-0.0181325 -0.0059057 0)
(-0.016675 -0.00580913 0)
(-0.0152421 -0.0056829 0)
(-0.0138407 -0.00552701 0)
(-0.0124776 -0.00534167 0)
(-0.0111596 -0.00512729 0)
(-0.0098932 -0.00488455 0)
(-0.00868472 -0.00461442 0)
(-0.0075402 -0.00431823 0)
(-0.00646525 -0.0039977 0)
(-0.00546502 -0.00365505 0)
(-0.00454408 -0.00329307 0)
(-0.0037063 -0.00291524 0)
(-0.00295476 -0.00252588 0)
(-0.00229157 -0.00213031 0)
(-0.00171777 -0.0017351 0)
(-0.00123317 -0.00134831 0)
(-0.000836216 -0.000979832 0)
(-0.000523845 -0.000641753 0)
(-0.000291257 -0.000348864 0)
(-0.000131679 -0.000119088 0)
(-3.77427e-05 2.59145e-05 0)
(-3.15876e-06 5.83065e-05 0)
(-7.58611e-06 -2.10824e-05 0)
(-6.51621e-05 9.6024e-05 0)
(-0.00020671 0.000333429 0)
(-0.000432419 0.000660781 0)
(-0.000746121 0.00105413 0)
(-0.00115253 0.0014935 0)
(-0.0016546 0.00196231 0)
(-0.0022537 0.00244696 0)
(-0.00294992 0.00293629 0)
(-0.00374218 0.00342125 0)
(-0.00462826 0.00389448 0)
(-0.00560501 0.00435006 0)
(-0.00666842 0.00478326 0)
(-0.00781375 0.00519034 0)
(-0.00903567 0.00556837 0)
(-0.0103283 0.00591512 0)
(-0.0116855 0.00622893 0)
(-0.0131006 0.00650858 0)
(-0.0145667 0.0067533 0)
(-0.016077 0.00696261 0)
(-0.0176243 0.00713633 0)
(-0.0192015 0.00727452 0)
(-0.0208013 0.00737744 0)
(-0.0224166 0.0074455 0)
(-0.0240403 0.00747928 0)
(-0.0256654 0.00747947 0)
(-0.0272851 0.00744685 0)
(-0.0288926 0.0073823 0)
(-0.0304814 0.00728679 0)
(-0.0320451 0.00716133 0)
(-0.0335775 0.00700698 0)
(-0.0350726 0.00682489 0)
(-0.0365247 0.00661619 0)
(-0.0379284 0.0063821 0)
(-0.0392783 0.00612383 0)
(-0.0405695 0.00584265 0)
(-0.0417973 0.00553984 0)
(-0.0429572 0.00521669 0)
(-0.044045 0.00487453 0)
(-0.0450568 0.0045147 0)
(-0.045989 0.00413857 0)
(-0.0468383 0.00374751 0)
(-0.0476016 0.00334293 0)
(-0.0482763 0.00292625 0)
(-0.0488599 0.00249889 0)
(-0.0493503 0.00206232 0)
(-0.0497458 0.001618 0)
(-0.0500448 0.00116743 0)
(-0.0502461 0.000712121 0)
(-0.0503491 0.000253592 0)
(-0.0503531 -0.000206608 0)
(-0.0502579 -0.000666913 0)
(-0.0500639 -0.00112574 0)
(-0.0497714 -0.00158151 0)
(-0.0493814 -0.00203258 0)
(-0.0488949 -0.00247736 0)
(-0.0483136 -0.00291419 0)
(-0.0476393 -0.00334144 0)
(-0.0468743 -0.00375746 0)
(-0.0460212 -0.00416059 0)
(-0.0450828 -0.00454919 0)
(-0.0440625 -0.00492162 0)
(-0.0429638 -0.00527623 0)
(-0.0417908 -0.00561141 0)
(-0.0405477 -0.00592556 0)
(-0.039239 -0.00621711 0)
(-0.0378699 -0.00648451 0)
(-0.0364454 -0.00672629 0)
(-0.0349712 -0.00694098 0)
(-0.033453 -0.00712719 0)
(-0.031897 -0.0072836 0)
(-0.0303096 -0.00740896 0)
(-0.0286973 -0.0075021 0)
(-0.0270669 -0.00756196 0)
(-0.0254254 -0.00758757 0)
(-0.02378 -0.00757811 0)
(-0.0221381 -0.00753288 0)
(-0.0205069 -0.00745133 0)
(-0.018894 -0.0073331 0)
(-0.0173068 -0.007178 0)
(-0.0157528 -0.0069861 0)
(-0.0142394 -0.00675767 0)
(-0.0127739 -0.00649329 0)
(-0.0113633 -0.00619385 0)
(-0.0100144 -0.00586061 0)
(-0.00873373 -0.00549525 0)
(-0.00752735 -0.00509995 0)
(-0.00640084 -0.00467747 0)
(-0.00535918 -0.00423124 0)
(-0.00440663 -0.00376551 0)
(-0.00354665 -0.00328546 0)
(-0.00278179 -0.00279743 0)
(-0.00211353 -0.00230912 0)
(-0.00154219 -0.00182986 0)
(-0.00106685 -0.00137091 0)
(-0.000685228 -0.00094587 0)
(-0.000393475 -0.000571096 0)
(-0.000185959 -0.000266138 0)
(-5.76049e-05 -5.42594e-05 0)
(-6.38269e-06 3.5222e-05 0)
(-1.08544e-05 1.62315e-05 0)
(-8.57224e-05 0.000214277 0)
(-0.000263394 0.000538643 0)
(-0.0005396 0.000958156 0)
(-0.000915646 0.00144776 0)
(-0.00139488 0.00198624 0)
(-0.00197906 0.00255575 0)
(-0.00266856 0.00314143 0)
(-0.00346266 0.00373095 0)
(-0.00435959 0.00431415 0)
(-0.00535655 0.00488269 0)
(-0.00644986 0.00542975 0)
(-0.00763505 0.00594985 0)
(-0.00890693 0.00643857 0)
(-0.0102597 0.00689245 0)
(-0.0116871 0.00730878 0)
(-0.0131825 0.00768552 0)
(-0.0147387 0.00802119 0)
(-0.0163487 0.00831478 0)
(-0.0180048 0.00856567 0)
(-0.0196994 0.00877359 0)
(-0.0214251 0.00893856 0)
(-0.023174 0.00906082 0)
(-0.0249385 0.00914085 0)
(-0.0267111 0.00917929 0)
(-0.0284842 0.00917694 0)
(-0.0302505 0.00913473 0)
(-0.0320027 0.0090537 0)
(-0.0337338 0.00893497 0)
(-0.035437 0.00877978 0)
(-0.0371056 0.0085894 0)
(-0.0387332 0.00836519 0)
(-0.0403136 0.00810854 0)
(-0.041841 0.00782091 0)
(-0.0433096 0.00750378 0)
(-0.0447141 0.00715868 0)
(-0.0460494 0.00678716 0)
(-0.0473106 0.0063908 0)
(-0.0484934 0.00597124 0)
(-0.0495934 0.00553009 0)
(-0.0506067 0.00506903 0)
(-0.0515299 0.00458975 0)
(-0.0523595 0.00409395 0)
(-0.0530927 0.00358336 0)
(-0.053727 0.00305976 0)
(-0.0542599 0.0025249 0)
(-0.0546895 0.0019806 0)
(-0.0550144 0.00142868 0)
(-0.0552332 0.000870988 0)
(-0.055345 0.000309387 0)
(-0.0553493 -0.000254228 0)
(-0.055246 -0.000817947 0)
(-0.0550352 -0.00137984 0)
(-0.0547174 -0.00193795 0)
(-0.0542937 -0.00249031 0)
(-0.0537652 -0.00303495 0)
(-0.0531336 -0.00356986 0)
(-0.0524011 -0.00409304 0)
(-0.0515699 -0.00460248 0)
(-0.0506429 -0.00509618 0)
(-0.0496232 -0.00557211 0)
(-0.0485143 -0.00602828 0)
(-0.0473203 -0.0064627 0)
(-0.0460452 -0.0068734 0)
(-0.0446938 -0.00725844 0)
(-0.043271 -0.00761591 0)
(-0.041782 -0.00794396 0)
(-0.0402327 -0.00824076 0)
(-0.0386288 -0.00850456 0)
(-0.0369768 -0.00873368 0)
(-0.0352831 -0.00892653 0)
(-0.0335546 -0.0090816 0)
(-0.0317983 -0.0091975 0)
(-0.0300217 -0.00927294 0)
(-0.0282321 -0.00930679 0)
(-0.0264372 -0.00929806 0)
(-0.024645 -0.00924594 0)
(-0.0228633 -0.00914981 0)
(-0.0211 -0.00900924 0)
(-0.0193633 -0.00882408 0)
(-0.017661 -0.0085944 0)
(-0.0160011 -0.00832063 0)
(-0.0143913 -0.00800348 0)
(-0.0128393 -0.00764408 0)
(-0.0113522 -0.007244 0)
(-0.00993704 -0.00680529 0)
(-0.00860033 -0.0063306 0)
(-0.00734808 -0.00582325 0)
(-0.0061857 -0.00528731 0)
(-0.0051179 -0.00472778 0)
(-0.0041486 -0.00415072 0)
(-0.00328082 -0.00356343 0)
(-0.00251661 -0.00297469 0)
(-0.0018569 -0.00239498 0)
(-0.00130153 -0.00183682 0)
(-0.000849148 -0.0013151 0)
(-0.000496972 -0.000847511 0)
(-0.000240632 -0.000454888 0)
(-7.74179e-05 -0.000161661 0)
(-9.52943e-06 1.95714e-06 0)
(-1.40113e-05 6.3955e-05 0)
(-0.000105944 0.000360731 0)
(-0.00031961 0.000787299 0)
(-0.000646429 0.00131211 0)
(-0.0010852 0.00190937 0)
(-0.00163785 0.00255695 0)
(-0.00230487 0.00323598 0)
(-0.00308555 0.00393055 0)
(-0.00397825 0.00462732 0)
(-0.00498041 0.00531514 0)
(-0.00608857 0.00598477 0)
(-0.00729848 0.00662857 0)
(-0.00860512 0.00724034 0)
(-0.0100028 0.00781501 0)
(-0.0114853 0.00834859 0)
(-0.0130458 0.00883791 0)
(-0.0146773 0.00928057 0)
(-0.0163723 0.00967478 0)
(-0.018123 0.0100193 0)
(-0.0199215 0.0103134 0)
(-0.0217599 0.0105567 0)
(-0.0236299 0.0107491 0)
(-0.0255235 0.0108909 0)
(-0.0274325 0.0109826 0)
(-0.029349 0.011025 0)
(-0.0312649 0.0110189 0)
(-0.0331724 0.0109654 0)
(-0.0350639 0.0108657 0)
(-0.0369319 0.0107211 0)
(-0.038769 0.0105331 0)
(-0.0405682 0.0103032 0)
(-0.0423228 0.0100329 0)
(-0.044026 0.00972399 0)
(-0.0456717 0.00937807 0)
(-0.0472537 0.00899696 0)
(-0.0487664 0.00858244 0)
(-0.0502044 0.00813639 0)
(-0.0515624 0.00766069 0)
(-0.0528357 0.00715725 0)
(-0.0540198 0.00662805 0)
(-0.0551105 0.00607506 0)
(-0.056104 0.00550031 0)
(-0.0569969 0.00490583 0)
(-0.057786 0.0042937 0)
(-0.0584684 0.00366602 0)
(-0.0590419 0.00302491 0)
(-0.0595043 0.00237254 0)
(-0.0598539 0.00171108 0)
(-0.0600894 0.00104274 0)
(-0.0602098 0.000369761 0)
(-0.0602147 -0.000305602 0)
(-0.0601037 -0.000981063 0)
(-0.0598772 -0.00165431 0)
(-0.0595356 -0.00232302 0)
(-0.05908 -0.00298484 0)
(-0.0585117 -0.0036374 0)
(-0.0578325 -0.00427832 0)
(-0.0570447 -0.0049052 0)
(-0.0561507 -0.00551567 0)
(-0.0551535 -0.0061073 0)
(-0.0540566 -0.00667772 0)
(-0.0528636 -0.00722453 0)
(-0.0515787 -0.00774537 0)
(-0.0502065 -0.00823791 0)
(-0.0487519 -0.00869982 0)
(-0.0472201 -0.00912886 0)
(-0.0456168 -0.0095228 0)
(-0.0439481 -0.00987949 0)