/*--------------------------------*- C++ -*----------------------------------*\
| =========                 |                                                 |
| \\      /  F ield         | OpenFOAM: The Open Source CFD Toolbox           |
|  \\    /   O peration     | Version:  2.3.0                                 |
|   \\  /    A nd           | Web:      www.OpenFOAM.org                      |
|    \\/     M anipulation  |                                                 |
\*---------------------------------------------------------------------------*/
FoamFile
{
    version     2.0;
    format      ascii;
    class       volScalarField;
    location    "400";
    object      nuSgs;
}
// * * * * * * * * * * * * * * * * * * * * * * * * * * * * * * * * * * * * * //

dimensions      [0 2 -1 0 0 0 0];

internalField   nonuniform List<scalar> 
90000
(
4.62374e-08
4.50627e-08
2.94504e-08
8.73076e-09
1.64331e-09
1.92084e-08
4.6993e-08
5.39206e-08
1.46817e-08
-4.30295e-08
-8.2584e-08
-9.47741e-08
-9.04983e-08
-8.06431e-08
-6.05617e-08
-2.59789e-08
2.4685e-08
7.93076e-08
1.16306e-07
1.23221e-07
1.0147e-07
6.22615e-08
1.88309e-08
-1.72874e-08
-3.92002e-08
-4.5e-08
-4.0047e-08
-2.4344e-08
-2.97715e-09
1.45585e-08
2.03411e-08
1.60663e-08
8.37862e-09
1.2431e-09
-3.14261e-09
-4.45662e-09
-3.08938e-09
-3.96404e-09
-9.43294e-09
-1.33662e-08
-9.95562e-09
-3.04804e-09
9.84397e-10
1.58947e-09
2.72034e-09
6.21979e-09
1.01457e-08
1.49965e-08
2.37728e-08
3.54169e-08
8.20338e-08
7.54589e-08
4.6895e-08
1.38805e-08
5.43684e-09
3.38806e-08
7.56944e-08
8.02723e-08
1.44369e-08
-7.41324e-08
-1.32028e-07
-1.44622e-07
-1.30344e-07
-1.08775e-07
-7.05572e-08
-1.24186e-08
6.74639e-08
1.47223e-07
1.96332e-07
1.98445e-07
1.59445e-07
9.73118e-08
3.15688e-08
-1.83255e-08
-4.71352e-08
-5.64387e-08
-4.95845e-08
-2.65078e-08
4.09271e-09
2.77631e-08
3.36103e-08
2.56809e-08
1.41502e-08
4.54394e-09
-1.09588e-09
-2.94018e-09
-1.62519e-09
-4.15609e-09
-1.36685e-08
-2.0978e-08
-1.66745e-08
-5.62652e-09
2.13684e-09
4.9905e-09
8.20265e-09
1.50905e-08
2.39208e-08
3.42422e-08
4.98396e-08
6.84974e-08
1.46501e-07
1.31186e-07
7.91075e-08
2.25173e-08
1.25339e-08
6.11196e-08
1.25422e-07
1.27061e-07
2.57615e-08
-1.02615e-07
-1.85911e-07
-2.04931e-07
-1.85924e-07
-1.6078e-07
-1.03806e-07
-1.1293e-08
1.16951e-07
2.43553e-07
3.19901e-07
3.22956e-07
2.63266e-07
1.66244e-07
6.27784e-08
-1.02463e-08
-5.14205e-08
-6.82192e-08
-5.72656e-08
-2.34975e-08
2.09569e-08
5.57463e-08
6.53131e-08
5.372e-08
3.57447e-08
2.0932e-08
1.22836e-08
8.99884e-09
9.95619e-09
4.87257e-09
-1.18404e-08
-2.76914e-08
-2.59202e-08
-1.1539e-08
1.69999e-09
9.51825e-09
1.70117e-08
2.85309e-08
4.416e-08
6.44014e-08
9.28243e-08
1.25775e-07
2.36723e-07
2.27214e-07
1.48188e-07
4.85731e-08
2.29043e-08
9.62378e-08
1.98836e-07
2.15377e-07
8.17969e-08
-9.48324e-08
-2.10689e-07
-2.47397e-07
-2.43803e-07
-2.50811e-07
-2.16998e-07
-1.13203e-07
7.49456e-08
2.92072e-07
4.44609e-07
4.77875e-07
4.02646e-07
2.61072e-07
1.0735e-07
-3.09343e-09
-6.3468e-08
-8.92279e-08
-7.10242e-08
-1.92765e-08
5.05838e-08
1.08993e-07
1.31045e-07
1.16664e-07
8.7172e-08
6.06352e-08
4.45453e-08
3.79672e-08
3.95198e-08
3.43675e-08
1.03051e-08
-2.01782e-08
-2.94366e-08
-2.00252e-08
-7.07621e-09
3.39634e-09
1.47871e-08
2.9268e-08
4.88907e-08
8.06502e-08
1.30021e-07
1.899e-07
3.43992e-07
3.78583e-07
2.89535e-07
1.22378e-07
4.34206e-08
1.32087e-07
2.91665e-07
3.55842e-07
2.02683e-07
-3.88737e-08
-1.95881e-07
-2.43664e-07
-2.54013e-07
-3.2247e-07
-3.95601e-07
-3.65143e-07
-1.52247e-07
1.92505e-07
5.0598e-07
6.46754e-07
5.8879e-07
3.92632e-07
1.63044e-07
-1.34018e-08
-1.06311e-07
-1.42784e-07
-1.13674e-07
-3.24256e-08
8.0111e-08
1.80968e-07
2.29077e-07
2.16787e-07
1.7216e-07
1.26084e-07
9.59548e-08
8.23111e-08
8.49889e-08
8.57326e-08
5.99461e-08
1.30833e-08
-1.48131e-08
-2.16904e-08
-2.2528e-08
-2.1121e-08
-1.15408e-08
3.2063e-09
2.21201e-08
6.05356e-08
1.35919e-07
2.38423e-07
4.16202e-07
5.48002e-07
5.1094e-07
2.81885e-07
9.32784e-08
1.54232e-07
3.73705e-07
5.16299e-07
3.79828e-07
7.13165e-08
-1.41231e-07
-1.77365e-07
-1.45537e-07
-2.00036e-07
-4.0612e-07
-6.01394e-07
-5.84567e-07
-2.4014e-07
2.60454e-07
6.39054e-07
7.28381e-07
5.36267e-07
2.28305e-07
-3.80859e-08
-1.8575e-07
-2.43425e-07
-2.08169e-07
-9.08328e-08
7.96908e-08
2.39556e-07
3.27118e-07
3.25214e-07
2.67056e-07
1.97263e-07
1.48163e-07
1.23999e-07
1.26226e-07
1.39382e-07
1.25784e-07
7.51557e-08
3.146e-08
2.84827e-09
-2.519e-08
-5.21057e-08
-5.893e-08
-4.90517e-08
-3.73301e-08
-6.10926e-09
8.45457e-08
2.28873e-07
3.87597e-07
6.31084e-07
7.36399e-07
5.2999e-07
2.04683e-07
1.60754e-07
4.15301e-07
6.63851e-07
6.0027e-07
2.43072e-07
-5.65978e-08
-9.65524e-08
2.49059e-08
1.28989e-07
5.57368e-10
-3.4434e-07
-7.49969e-07
-8.90138e-07
-5.57928e-07
2.22791e-08
4.29233e-07
4.38531e-07
1.80812e-07
-1.13608e-07
-3.00182e-07
-3.67639e-07
-3.19369e-07
-1.59339e-07
7.34965e-08
2.87673e-07
3.9738e-07
3.88029e-07
3.06686e-07
2.10432e-07
1.43747e-07
1.12499e-07
1.14087e-07
1.39948e-07
1.53274e-07
1.30235e-07
9.47499e-08
5.80772e-08
3.07674e-09
-6.72192e-08
-1.1118e-07
-1.14338e-07
-1.10993e-07
-9.74705e-08
-1.22273e-08
1.47722e-07
2.60765e-07
5.33747e-07
7.84694e-07
7.43443e-07
3.69246e-07
1.55754e-07
3.82372e-07
7.6921e-07
8.8874e-07
5.52752e-07
9.48502e-08
-5.45527e-08
8.44684e-08
3.40122e-07
5.8783e-07
5.54507e-07
8.08681e-08
-6.09826e-07
-1.0627e-06
-9.28322e-07
-3.90896e-07
-8.43418e-08
-1.64848e-07
-3.97656e-07
-5.63483e-07
-5.5281e-07
-3.87e-07
-7.45497e-08
2.87081e-07
5.45024e-07
5.82396e-07
4.44522e-07
2.48627e-07
8.34478e-08
-9.51557e-09
-3.76e-08
-2.45536e-08
1.09173e-08
5.13179e-08
7.83693e-08
8.82515e-08
8.63852e-08
3.63006e-08
-6.93709e-08
-1.67677e-07
-2.00586e-07
-1.98619e-07
-1.95071e-07
-1.29803e-07
2.55001e-08
7.90168e-08
2.97953e-07
5.5517e-07
6.89683e-07
4.45597e-07
1.17538e-07
2.27869e-07
7.14153e-07
1.15438e-06
1.08651e-06
5.02528e-07
-1.92794e-08
-2.32537e-08
2.182e-07
5.49414e-07
1.05479e-06
1.48423e-06
1.19321e-06
5.14483e-07
-8.75568e-09
-1.76411e-07
-9.79979e-08
-9.23685e-08
-3.5589e-07
-8.84085e-07
-1.08538e-06
-6.4499e-07
1.80761e-07
1.03932e-06
1.56195e-06
1.46799e-06
9.25392e-07
3.03413e-07
-1.39916e-07
-3.59122e-07
-4.07439e-07
-3.64531e-07
-3.04218e-07
-2.40334e-07
-1.74794e-07
-1.09106e-07
-3.75107e-08
-2.53819e-08
-1.15734e-07
-2.53433e-07
-3.41605e-07
-3.56629e-07
-3.44874e-07
-2.89073e-07
-1.45345e-07
-2.13238e-07
-4.4617e-08
1.31221e-07
3.21018e-07
2.79737e-07
-1.02674e-08
-3.60548e-08
3.59449e-07
1.0093e-06
1.48003e-06
1.24162e-06
2.82806e-07
-5.6188e-07
-2.67888e-07
1.62863e-07
4.31499e-07
1.19074e-06
2.36482e-06
3.20331e-06
3.37642e-06
2.80729e-06
2.00215e-06
1.42873e-06
6.70091e-07
-4.90564e-07
-1.91285e-06
-1.86441e-06
-1.0995e-07
1.91989e-06
3.26755e-06
3.38752e-06
2.44409e-06
1.11806e-06
3.62058e-08
-6.18382e-07
-8.85281e-07
-8.9921e-07
-8.31669e-07
-7.48928e-07
-6.51503e-07
-5.38276e-07
-3.89891e-07
-2.78428e-07
-2.95087e-07
-4.21762e-07
-5.55727e-07
-6.14447e-07
-6.18151e-07
-5.64422e-07
-4.2986e-07
-5.26197e-07
-4.6422e-07
-6.11995e-07
-5.47932e-07
-3.09392e-07
-3.97152e-07
-4.66117e-07
-2.50058e-07
2.81603e-07
1.06865e-06
1.4842e-06
8.94803e-07
-1.08941e-06
-3.86613e-06
-2.20562e-06
9.10842e-08
4.88513e-07
1.11193e-06
3.15075e-06
5.93328e-06
6.83433e-06
5.40059e-06
3.68065e-06
2.61224e-06
6.81031e-07
-2.39173e-06
-3.7254e-06
-2.04004e-06
1.32821e-06
3.83359e-06
4.51862e-06
3.67326e-06
2.17796e-06
8.60028e-07
-7.10245e-08
-6.59201e-07
-9.59458e-07
-1.09447e-06
-1.17165e-06
-1.17449e-06
-1.05888e-06
-8.50909e-07
-6.27365e-07
-5.35983e-07
-6.34721e-07
-8.29803e-07
-9.59124e-07
-9.86723e-07
-9.22142e-07
-7.53003e-07
-2.59159e-07
5.79556e-08
-1.39815e-07
-1.01089e-06
-1.41658e-06
-1.30513e-06
-1.03911e-06
-9.26519e-07
-1.35114e-06
-3.99685e-07
7.22585e-07
8.08244e-07
-4.7077e-07
-5.58865e-06
-1.56233e-05
-1.32721e-05
-5.05901e-07
6.50589e-07
1.26805e-06
4.29472e-06
8.38232e-06
8.79455e-06
6.5812e-06
4.965e-06
3.37545e-06
-6.94995e-07
-3.99631e-06
-4.25133e-06
-1.06147e-06
2.18391e-06
3.35744e-06
2.85889e-06
1.85038e-06
1.10996e-06
5.71817e-07
6.64636e-08
-3.25445e-07
-5.89948e-07
-9.0853e-07
-1.26809e-06
-1.35438e-06
-1.2006e-06
-8.89866e-07
-6.29289e-07
-5.95982e-07
-7.81864e-07
-9.93102e-07
-1.0657e-06
-9.63811e-07
-6.99805e-07
7.01474e-07
1.31677e-06
1.64294e-06
8.42385e-07
-5.3344e-07
-1.01794e-06
-5.36909e-07
3.14169e-07
-4.40559e-08
-1.22093e-06
-8.79658e-07
-8.13864e-07
-1.05537e-06
-2.64312e-06
-8.85979e-06
-1.84536e-05
-2e-05
-2.87026e-06
6.07882e-07
1.59462e-06
6.00246e-06
1.01858e-05
9.61246e-06
7.72037e-06
6.61162e-06
3.71604e-06
-6.07792e-07
-3.69341e-06
-3.05057e-06
-7.26287e-07
3.57226e-07
2.41436e-07
1.67834e-07
4.37559e-07
5.28731e-07
2.76273e-07
-3.1208e-09
-1.24279e-07
-3.76893e-07
-9.18869e-07
-1.30266e-06
-1.38748e-06
-1.15283e-06
-7.82146e-07
-4.85661e-07
-3.98671e-07
-4.76103e-07
-4.95657e-07
-2.57974e-07
1.4203e-07
1.87428e-06
2.33043e-06
2.81492e-06
2.47068e-06
8.92683e-07
-2.95182e-07
3.56341e-08
7.29652e-07
1.12813e-06
1.23455e-07
-2.03071e-06
-1.77406e-06
-2.16775e-06
-3.35191e-06
-4.41942e-06
-9.36807e-06
-8.47092e-06
-2e-05
-1.31031e-05
4.01762e-07
2.11163e-06
8.3339e-06
1.14481e-05
9.71363e-06
8.33714e-06
6.96633e-06
3.39927e-06
-4.50153e-07
-1.93754e-06
-1.9484e-06
-1.87621e-06
-1.72289e-06
-9.82285e-07
-1.14984e-07
1.52762e-07
-7.26611e-08
-2.19111e-07
-9.2953e-08
-5.18497e-08
-3.85082e-07
-9.03723e-07
-1.34363e-06
-1.41843e-06
-1.08912e-06
-5.74483e-07
-1.1728e-07
1.29525e-07
2.39741e-07
6.07113e-07
1.26515e-06
2.82619e-06
3.50626e-06
3.81779e-06
3.4537e-06
2.20631e-06
7.26663e-07
6.01808e-07
1.63955e-06
1.76131e-06
1.22745e-06
8.49552e-08
-2.18427e-06
-3.7073e-06
-2.74292e-06
-4.0707e-06
-4.98327e-06
-8.25025e-06
-4.04913e-06
-1.08462e-05
-2e-05
5.45511e-07
3.3575e-06
9.81866e-06
1.10793e-05
9.20105e-06
7.39827e-06
4.56163e-06
9.13076e-07
-1.41505e-06
-1.47207e-06
-1.8426e-06
-1.70176e-06
-8.77514e-07
-7.83805e-08
1.36998e-08
-3.57938e-07
-4.4367e-07
-1.39207e-07
7.67381e-08
1.16417e-08
-2.22706e-07
-7.04414e-07
-1.26034e-06
-1.40041e-06
-9.12256e-07
-2.06278e-07
2.79044e-07
5.34504e-07
8.54667e-07
1.61477e-06
1.68208e-06
2.68606e-06
3.53627e-06
3.55844e-06
2.36745e-06
1.08526e-06
9.46992e-07
1.99803e-06
2.65813e-06
1.88712e-06
6.7149e-07
-2.99165e-07
-2.00883e-06
-3.25112e-06
-1.71259e-06
-2.19322e-06
-3.29035e-06
-3.3467e-06
-3.29205e-06
-3.92626e-06
-7.90652e-06
7.93802e-08
3.83238e-06
8.20035e-06
9.51615e-06
8.04715e-06
5.39267e-06
2.21704e-06
8.85608e-07
5.09116e-07
-1.19079e-07
-4.3388e-07
1.98369e-08
4.41727e-07
2.74891e-07
-1.93143e-07
-2.75008e-07
9.19335e-08
3.35661e-07
2.26057e-07
2.78661e-07
3.296e-07
-9.32891e-08
-9.52389e-07
-1.33465e-06
-7.44135e-07
-3.18036e-08
2.62471e-07
4.52072e-07
8.48323e-07
4.1648e-07
8.09278e-07
1.52239e-06
2.32358e-06
2.19296e-06
1.28733e-06
8.79395e-07
1.62839e-06
2.83106e-06
3.04265e-06
2.1716e-06
9.89096e-07
-4.68384e-07
-1.14322e-06
-9.50803e-07
-2.72917e-07
1.998e-07
-4.87552e-07
-4.00902e-07
-2.5111e-06
-5.45586e-07
1.07889e-06
-3.20908e-06
5.17449e-07
5.02859e-06
7.6954e-06
7.47923e-06
4.20503e-06
1.13739e-06
3.24686e-07
9.03557e-07
1.96509e-06
2.87174e-06
2.79043e-06
2.12198e-06
2.16857e-06
2.34214e-06
2.36914e-06
2.07456e-06
1.56694e-06
1.19544e-06
1.16886e-06
1.33755e-06
1.23615e-06
5.96292e-07
-2.31285e-07
-5.30913e-07
-2.69479e-07
-2.2187e-08
1.73524e-07
-1.582e-07
-2.56449e-08
2.00658e-07
7.70159e-07
1.27737e-06
1.18304e-06
8.18725e-07
1.1561e-06
2.2068e-06
3.17246e-06
3.22126e-06
2.39338e-06
9.50057e-07
-6.29281e-07
-5.68711e-07
2.7936e-07
4.69087e-07
6.98118e-07
6.67976e-07
1.94265e-06
-2.95541e-07
6.97001e-07
5.05195e-07
1.10077e-07
2.51417e-06
4.68107e-06
6.73533e-06
5.1665e-06
1.33853e-06
1.47565e-07
3.23135e-07
9.17105e-07
1.87387e-06
2.77537e-06
3.45909e-06
4.62466e-06
5.2607e-06
5.05071e-06
4.03918e-06
2.88364e-06
2.03757e-06
1.57685e-06
1.36456e-06
1.36933e-06
1.63166e-06
1.77242e-06
1.22715e-06
5.96079e-08
-6.68329e-07
-4.57327e-07
-3.30555e-07
-3.9825e-07
-4.51613e-07
6.23334e-08
6.71375e-07
9.00105e-07
8.25981e-07
8.69841e-07
1.58271e-06
2.77691e-06
3.59279e-06
3.35183e-06
2.0522e-06
1.60292e-07
-7.57044e-07
-2.05739e-07
5.51381e-07
1.53102e-06
2.2265e-06
2.53161e-06
2.39056e-06
-3.53305e-07
8.1914e-07
1.9794e-06
-2.59593e-08
3.4976e-06
6.64669e-06
5.2426e-06
1.82789e-06
4.24911e-07
9.94821e-07
5.95454e-07
7.85138e-07
1.16989e-06
1.97005e-06
3.7016e-06
4.83697e-06
4.8814e-06
4.0802e-06
3.05614e-06
2.19779e-06
1.63939e-06
1.36105e-06
1.32023e-06
1.49165e-06
1.93551e-06
2.26559e-06
1.89886e-06
8.96289e-07
-7.11619e-08
1.22907e-06
9.27031e-07
1.56682e-07
-2.22723e-07
2.32481e-07
7.58472e-07
9.36124e-07
8.80505e-07
1.01419e-06
1.59557e-06
2.55241e-06
2.92835e-06
2.44374e-06
1.2646e-06
-4.14932e-08
-4.88134e-07
5.34582e-07
2.59268e-06
4.65538e-06
4.36929e-06
3.15408e-06
1.29683e-06
7.79739e-07
1.61239e-06
5.12323e-07
1.75556e-06
8.3354e-06
8.15613e-06
4.40694e-06
3.81833e-06
5.03754e-06
4.0778e-06
1.35802e-06
4.57892e-07
7.26976e-07
1.60634e-06
2.27381e-06
2.33265e-06
1.93771e-06
1.44902e-06
1.08273e-06
9.92667e-07
1.0987e-06
1.27993e-06
1.50308e-06
1.73816e-06
2.05749e-06
2.18866e-06
1.94976e-06
1.50907e-06
1.93643e-06
1.88e-06
1.9354e-06
2.27849e-06
1.5497e-06
1.09985e-06
1.09602e-06
1.13754e-06
1.02979e-06
1.04914e-06
1.19367e-06
1.43624e-06
1.54625e-06
1.42572e-06
9.60586e-07
3.46134e-07
5.04535e-07
2.4174e-06
5.19948e-06
5.69304e-06
4.03499e-06
1.62616e-06
3.06195e-07
1.05125e-06
7.60476e-07
1.4932e-06
4.99919e-06
4.19818e-06
3.64133e-06
4.05085e-06
3.96373e-06
3.00661e-06
1.14277e-06
1.79048e-07
2.53842e-07
3.49516e-07
5.26707e-07
5.95894e-07
4.25182e-07
2.52919e-07
1.46365e-07
5.60156e-07
1.2198e-06
1.41298e-06
1.36036e-06
1.29919e-06
1.29694e-06
1.43266e-06
1.58812e-06
1.70273e-06
1.03067e-06
7.32001e-07
6.01096e-07
2.20782e-06
2.78228e-06
2.48327e-06
2.07619e-06
1.66953e-06
1.3507e-06
9.92714e-07
-2.66579e-07
-6.01848e-07
-6.31231e-09
4.92554e-07
7.91514e-07
8.87965e-07
9.97641e-07
1.98789e-06
4.046e-06
4.51315e-06
3.45065e-06
1.47078e-06
-4.13141e-08
-2.7613e-08
6.66239e-07
1.20318e-06
1.99123e-06
8.1485e-07
5.79568e-07
1.20381e-06
1.19199e-06
5.01109e-07
-9.22326e-08
-2.87324e-07
-2.94817e-07
-3.07196e-07
-1.57765e-07
1.73288e-07
5.03842e-08
-2.46549e-07
-2.97305e-07
5.87134e-09
6.69118e-07
1.04777e-06
8.90461e-07
5.26638e-07
3.25678e-07
4.39405e-07
6.64257e-07
8.77406e-07
6.20304e-07
-5.34905e-08
-2.88816e-07
8.92873e-07
1.90791e-06
2.27888e-06
2.14981e-06
1.59713e-06
1.02499e-06
6.71103e-07
1.45075e-07
-2.76826e-07
3.8317e-07
1.07914e-06
1.41296e-06
1.39506e-06
1.31674e-06
1.47603e-06
2.25221e-06
2.50669e-06
1.80885e-06
5.90907e-07
-5.45e-07
-8.93445e-07
-2.7357e-07
4.17302e-07
2.60634e-07
-2.72385e-07
-5.00421e-07
-3.61515e-07
-1.93248e-07
1.13717e-07
6.56076e-07
1.12318e-06
1.19963e-06
9.13582e-07
5.64295e-07
6.28998e-08
-5.61351e-07
-5.50064e-07
1.34288e-07
8.41845e-07
1.18992e-06
1.26683e-06
1.15778e-06
1.00659e-06
1.08133e-06
1.33192e-06
1.47565e-06
1.27051e-06
1.11551e-06
3.30291e-07
-4.52176e-07
-4.97968e-07
1.73912e-07
1.03047e-06
1.63674e-06
1.38715e-06
7.36932e-07
4.86818e-07
6.10883e-07
7.53353e-07
1.08484e-06
1.64319e-06
2.02437e-06
2.0553e-06
1.88875e-06
1.8117e-06
2.15692e-06
1.84671e-06
1.01262e-06
2.06774e-07
-6.47305e-07
-1.32624e-06
-1.35994e-06
-5.81006e-07
-2.49553e-07
-1.20912e-07
3.94413e-07
1.12404e-06
1.71761e-06
2.10779e-06
2.4729e-06
2.87475e-06
3.0436e-06
2.81247e-06
2.20716e-06
1.35783e-06
5.25347e-07
4.1558e-07
1.00102e-06
1.75986e-06
2.22623e-06
1.66598e-06
8.91537e-07
7.8159e-07
1.38324e-06
2.09248e-06
2.2497e-06
1.91781e-06
1.85174e-06
1.82437e-06
1.7656e-06
1.43498e-06
1.099e-06
1.00279e-06
1.0784e-06
9.40247e-07
6.61011e-07
7.96207e-07
1.05734e-06
1.13222e-06
1.09156e-06
9.01806e-07
6.09633e-07
4.86179e-07
4.77639e-07
6.10428e-07
1.25654e-06
1.70213e-06
9.6002e-07
1.85393e-07
-2.44318e-07
-7.21804e-07
-1.32343e-06
-1.63368e-06
-1.32234e-06
-7.01727e-07
-1.81908e-07
3.74652e-07
1.13413e-06
1.85927e-06
2.44182e-06
2.95204e-06
3.41817e-06
3.72551e-06
3.49036e-06
2.70229e-06
1.66956e-06
1.40063e-06
2.0588e-06
2.67206e-06
2.73802e-06
1.79871e-06
2.92545e-07
-2.04094e-07
6.0893e-07
1.71991e-06
2.22239e-06
2.0998e-06
1.87963e-06
2.2397e-06
2.3746e-06
2.41227e-06
2.64348e-06
2.9422e-06
3.0373e-06
2.3967e-06
9.62548e-07
1.79385e-07
7.40714e-07
1.30048e-06
1.45963e-06
1.08315e-06
3.85927e-07
-4.50018e-07
-1.25876e-06
-1.58987e-06
-9.76325e-07
4.02361e-07
1.20004e-06
1.15254e-06
5.97798e-07
5.18586e-07
2.73248e-07
8.44043e-08
5.45094e-07
1.91474e-06
2.398e-06
1.67953e-06
9.03972e-07
7.15425e-07
1.04737e-06
1.38996e-06
1.6424e-06
2.06498e-06
2.65162e-06
2.98077e-06
2.54671e-06
2.08328e-06
2.40723e-06
2.91084e-06
2.71492e-06
1.59802e-06
1.28409e-07
-3.37831e-07
5.98029e-07
1.60973e-06
1.91284e-06
1.79918e-06
1.73788e-06
1.85701e-06
2.27091e-06
2.6364e-06
2.89046e-06
3.21999e-06
3.38907e-06
3.29053e-06
2.60953e-06
1.11928e-06
-8.3088e-08
6.66282e-07
3.12349e-06
3.45316e-06
5.18392e-07
-1.48996e-06
-2.13586e-06
-1.73612e-06
3.78783e-07
2.41506e-06
3.66807e-06
3.55122e-06
2.40655e-06
1.25841e-06
1.08259e-06
1.17648e-06
1.11882e-06
7.93814e-07
2.03094e-07
-2.1917e-07
-3.53477e-07
-3.04783e-07
1.41178e-07
8.21238e-07
1.25153e-06
1.16378e-06
1.12099e-06
1.39827e-06
1.41354e-06
1.34434e-06
1.54722e-06
1.8841e-06
2.00921e-06
1.48965e-06
3.32761e-07
-8.98322e-08
1.0401e-06
2.04043e-06
2.12468e-06
1.83972e-06
3.3248e-06
3.59865e-06
4.05645e-06
3.89674e-06
2.79713e-06
2.40814e-06
2.49614e-06
2.68549e-06
2.91766e-06
2.75918e-06
2.03952e-06
1.79565e-06
2.80476e-06
3.80757e-06
2.87124e-06
5.59071e-07
1.81905e-07
1.22501e-06
3.02995e-06
3.90436e-06
4.03714e-06
3.42124e-06
2.30817e-06
1.03593e-06
1.14903e-06
1.54755e-06
1.57364e-06
1.36842e-06
1.4109e-07
-1.4571e-06
-2.6643e-06
-2.46603e-06
-1.40067e-06
-3.50112e-07
6.57267e-07
1.77183e-06
1.98376e-06
1.29311e-06
5.36734e-07
3.57344e-07
6.27224e-07
3.14703e-07
-4.21911e-09
-7.03248e-07
-1.38278e-06
-1.3988e-06
9.94817e-07
2.8337e-06
3.16419e-06
3.29834e-06
1.59376e-06
2.30039e-06
2.4206e-06
2.09406e-06
1.68492e-06
1.58165e-06
1.16108e-06
1.00879e-06
1.47248e-06
1.96957e-06
2.0446e-06
1.74926e-06
1.6269e-06
1.47605e-06
6.80369e-07
-5.65524e-07
1.4138e-07
1.4268e-06
2.31188e-06
2.58102e-06
2.45274e-06
1.87129e-06
8.88177e-07
-8.47244e-08
4.17171e-07
9.25828e-07
1.51959e-06
2.42878e-06
3.14136e-06
2.54549e-06
1.67097e-06
1.58523e-06
1.58799e-06
3.04943e-07
7.92588e-07
1.74108e-06
2.80467e-06
3.01283e-06
1.58239e-06
5.71297e-07
3.29773e-07
5.54668e-07
1.31337e-06
1.54461e-06
1.19517e-06
9.5703e-07
1.71177e-06
3.21043e-06
2.61872e-06
1.11553e-06
2.58682e-06
1.0585e-06
-1.81604e-07
-4.16115e-07
1.38496e-07
9.49745e-07
8.48592e-07
2.67131e-07
8.06581e-07
1.31849e-06
1.61087e-06
2.34172e-06
3.26354e-06
3.8403e-06
4.00672e-06
2.63603e-06
1.00879e-06
1.90763e-07
-3.78251e-07
-6.63523e-07
-4.63322e-07
8.0806e-09
2.3351e-07
-6.52264e-08
-1.27836e-07
1.26412e-06
2.45947e-06
3.37594e-06
3.5158e-06
2.8974e-06
2.07544e-06
1.15163e-06
2.90537e-07
9.87917e-07
1.8449e-06
2.2868e-06
2.24396e-06
1.65888e-06
7.87937e-07
-1.58926e-07
-6.15556e-07
-6.49495e-07
-1.13016e-06
-1.53912e-06
-7.35819e-07
4.66504e-07
1.60041e-06
2.58116e-06
3.27965e-06
3.51239e-06
4.37748e-08
2.33086e-08
5.35657e-09
8.00405e-09
4.87524e-08
8.64161e-08
6.72939e-08
-9.10572e-09
-8.93598e-08
-1.0682e-07
-8.38906e-08
-8.51945e-08
-1.08156e-07
-1.33523e-07
-1.27524e-07
-1.22753e-07
-1.11217e-07
-8.47185e-08
-4.2688e-08
-1.42757e-09
1.6837e-08
5.02089e-09
-2.28708e-08
-5.05391e-08
-6.92482e-08
-7.84304e-08
-7.74078e-08
-6.62178e-08
-3.86127e-08
-1.28063e-09
3.03963e-08
4.71204e-08
5.00004e-08
4.5042e-08
3.68672e-08
2.87159e-08
2.26003e-08
1.74762e-08
1.14709e-08
4.42513e-09
-5.54167e-10
-4.06862e-10
4.83074e-09
1.16388e-08
2.10433e-08
3.87911e-08
6.31794e-08
8.27749e-08
8.35674e-08
6.65443e-08
1.08627e-07
6.57176e-08
2.15998e-08
1.16654e-08
7.10587e-08
1.40631e-07
1.31761e-07
2.7489e-08
-1.00075e-07
-1.48603e-07
-1.35279e-07
-1.4613e-07
-1.7841e-07
-2.00245e-07
-1.92582e-07
-1.84094e-07
-1.63034e-07
-1.21152e-07
-5.89168e-08
-1.17778e-09
2.27799e-08
5.2956e-09
-3.24008e-08
-7.54625e-08
-1.0121e-07
-1.08765e-07
-1.05568e-07
-8.67535e-08
-4.46426e-08
9.53668e-09
5.46046e-08
7.79172e-08
8.17804e-08
7.42877e-08
6.14805e-08
4.86501e-08
3.91834e-08
3.05958e-08
1.93277e-08
5.36309e-09
-4.82637e-09
-6.55016e-09
1.28969e-09
1.46267e-08
3.41336e-08
6.59372e-08
1.10562e-07
1.52163e-07
1.66406e-07
1.46492e-07
2.48787e-07
1.77125e-07
7.79125e-08
1.95707e-08
8.59136e-08
2.20298e-07
2.73526e-07
1.73133e-07
-4.07974e-09
-1.22611e-07
-1.58026e-07
-2.02859e-07
-2.68272e-07
-3.15796e-07
-3.04191e-07
-2.8877e-07
-2.49331e-07
-1.79274e-07
-8.41134e-08
-1.42178e-09
3.31458e-08
1.07642e-08
-3.95603e-08
-1.04705e-07
-1.37938e-07
-1.39443e-07
-1.2959e-07
-9.97271e-08
-3.83352e-08
3.76525e-08
1.00634e-07
1.33729e-07
1.38643e-07
1.25037e-07
1.02246e-07
8.1253e-08
6.83687e-08
5.66711e-08
3.86701e-08
1.36587e-08
-7.46134e-09
-1.99898e-08
-1.77888e-08
-5.90662e-10
3.2587e-08
8.23267e-08
1.53374e-07
2.36464e-07
2.93806e-07
2.92431e-07
4.36597e-07
3.89658e-07
2.46988e-07
9.44839e-08
1.21132e-07
3.26311e-07
4.63645e-07
4.04042e-07
2.4595e-07
7.73822e-08
-4.18056e-08
-1.46682e-07
-2.74808e-07
-3.95523e-07
-4.02997e-07
-4.02247e-07
-3.54324e-07
-2.54749e-07
-1.20091e-07
-8.52422e-09
3.80548e-08
1.13883e-08
-5.14269e-08
-1.31929e-07
-1.75199e-07
-1.71766e-07
-1.55462e-07
-1.12991e-07
-2.53508e-08
8.37474e-08
1.72297e-07
2.16267e-07
2.18567e-07
1.93284e-07
1.54997e-07
1.22147e-07
1.06897e-07
9.64996e-08
7.57632e-08
4.2641e-08
9.35865e-09
-2.389e-08
-4.64667e-08
-4.56175e-08
-1.25734e-08
4.54321e-08
1.29907e-07
2.53928e-07
3.7875e-07
4.33876e-07
5.8636e-07
6.65897e-07
5.7703e-07
3.22835e-07
2.35885e-07
5.00066e-07
7.7431e-07
7.25251e-07
5.85064e-07
4.87802e-07
2.95878e-07
8.3809e-08
-1.49823e-07
-3.93813e-07
-4.70117e-07
-5.27709e-07
-5.01336e-07
-3.73518e-07
-1.82388e-07
-2.67471e-08
2.71507e-08
-1.70098e-08
-9.84928e-08
-1.83062e-07
-2.40183e-07
-2.37967e-07
-2.17888e-07
-1.57518e-07
-2.9334e-08
1.34297e-07
2.68578e-07
3.34223e-07
3.3633e-07
2.97055e-07
2.37335e-07
1.84149e-07
1.62451e-07
1.56397e-07
1.37074e-07
9.90311e-08
5.91554e-08
1.10494e-08
-4.51019e-08
-8.63525e-08
-8.18576e-08
-3.83048e-08
2.76922e-08
1.47718e-07
3.25256e-07
4.69112e-07
5.53978e-07
8.43511e-07
9.71968e-07
7.10649e-07
4.34434e-07
6.56992e-07
1.12566e-06
1.19347e-06
1.00025e-06
1.02038e-06
8.7142e-07
5.33963e-07
1.4974e-07
-2.28841e-07
-4.34129e-07
-6.16502e-07
-7.03423e-07
-5.95465e-07
-3.16574e-07
-3.72594e-08
6.55348e-08
-1.28391e-08
-1.44097e-07
-2.43656e-07
-3.15098e-07
-3.33497e-07
-3.26089e-07
-2.5638e-07
-8.72797e-08
1.41085e-07
3.41522e-07
4.4959e-07
4.67525e-07
4.24854e-07
3.47938e-07
2.70271e-07
2.37225e-07
2.37896e-07
2.25036e-07
1.8235e-07
1.41069e-07
9.83104e-08
2.90431e-08
-5.95133e-08
-1.07154e-07
-9.73333e-08
-7.66271e-08
-3.83878e-08
1.00766e-07
3.03404e-07
3.17435e-07
7.62644e-07
1.19915e-06
1.12275e-06
6.85452e-07
6.99379e-07
1.31297e-06
1.62289e-06
1.46872e-06
1.5644e-06
1.53654e-06
1.13128e-06
6.13547e-07
1.43257e-07
-1.71949e-07
-4.91304e-07
-8.29265e-07
-9.28759e-07
-6.13818e-07
-7.70426e-08
2.84831e-07
3.01666e-07
1.08945e-07
-1.24253e-07
-3.05076e-07
-3.99152e-07
-4.13731e-07
-3.37297e-07
-1.45331e-07
1.13981e-07
3.44713e-07
4.83038e-07
5.27474e-07
5.03033e-07
4.32911e-07
3.40897e-07
2.97205e-07
3.08829e-07
3.13608e-07
2.73441e-07
2.31767e-07
2.11905e-07
1.67975e-07
5.97938e-08
-3.80019e-08
-5.17534e-08
-5.07638e-08
-1.21222e-07
-1.371e-07
1.59238e-08
4.70004e-08
5.21481e-07
1.12482e-06
1.30915e-06
8.73971e-07
5.663e-07
1.17101e-06
1.88962e-06
1.94923e-06
2.07977e-06
2.14308e-06
1.6672e-06
1.07856e-06
6.23884e-07
2.95825e-07
-2.0797e-09
-4.85433e-07
-9.3665e-07
-8.59933e-07
-2.19078e-07
5.84575e-07
1.0751e-06
1.16599e-06
8.78689e-07
2.88464e-07
-2.93789e-07
-4.84451e-07
-4.02256e-07
-1.07648e-07
2.36937e-07
4.46214e-07
5.18354e-07
5.16727e-07
4.86803e-07
4.34584e-07
3.44566e-07
2.8855e-07
3.02567e-07
3.2781e-07
3.06258e-07
2.69567e-07
2.77012e-07
2.85413e-07
1.97647e-07
7.33149e-08
6.95205e-08
1.37675e-07
7.31006e-08
-1.42679e-07
-2.08787e-07
-1.99734e-07
2.95002e-07
9.40092e-07
1.25136e-06
9.18099e-07
3.39467e-07
6.47646e-07
1.70407e-06
2.2583e-06
2.52708e-06
2.6166e-06
1.99209e-06
1.33419e-06
1.00145e-06
8.20582e-07
6.26001e-07
2.54743e-07
-2.04809e-07
-4.25143e-07
-2.19835e-07
3.17956e-07
1.27771e-06
2.43567e-06
3.02874e-06
2.52667e-06
8.93199e-07
-3.05239e-07
-5.32213e-07
-1.5459e-07
5.26228e-07
1.01837e-06
1.04129e-06
7.96414e-07
5.64452e-07
4.2147e-07
3.08377e-07
2.26573e-07
2.23183e-07
2.50686e-07
2.34548e-07
1.94435e-07
2.11524e-07
2.70127e-07
2.35125e-07
1.00584e-07
8.93874e-08
2.47216e-07
3.42957e-07
1.65456e-07
-1.84989e-07
-3.70724e-07
1.59954e-09
7.82536e-07
1.20298e-06
9.70738e-07
2.65255e-07
1.22591e-07
1.0187e-06
1.97629e-06
2.6628e-06
2.75769e-06
1.91372e-06
1.11428e-06
9.25385e-07
1.15795e-06
1.28298e-06
9.53661e-07
4.43519e-07
4.07945e-07
3.46381e-07
1.42808e-07
1.93621e-07
1.12653e-06
3.49923e-06
5.2943e-06
4.10523e-06
1.2003e-06
-6.09905e-07
-4.55448e-07
7.89501e-07
2.36615e-06
2.9864e-06
2.42506e-06
1.46867e-06
7.6561e-07
4.07322e-07
2.10768e-07
1.48514e-07
1.52565e-07
1.05647e-07
3.48647e-08
3.31701e-08
1.12584e-07
1.36104e-07
1.45953e-08
-3.77163e-08
1.25615e-07
3.28612e-07
3.31266e-07
2.37926e-08
-3.02776e-07
-3.50253e-07
5.13806e-07
1.19835e-06
1.18162e-06
4.6916e-07
-1.3615e-07
3.76585e-07
1.21365e-06
2.28352e-06
2.61137e-06
1.70692e-06
7.08423e-07
3.84856e-07
7.1383e-07
1.33251e-06
1.52091e-06
6.84418e-07
1.12201e-07
1.29247e-06
1.05334e-06
4.10705e-07
-1.49421e-06
7.68638e-07
4.19286e-06
6.62254e-06
3.92542e-06
1.19031e-07
-1.00019e-06
3.85424e-07
3.59794e-06
5.52895e-06
5.05935e-06
3.53347e-06
2.13555e-06
1.18342e-06
5.90813e-07
3.39573e-07
2.1147e-07
-8.83782e-09
-1.93173e-07
-2.34173e-07
-1.36506e-07
-7.09171e-08
-1.83415e-07
-2.90887e-07
-1.08334e-07
1.42793e-07
2.64278e-07
1.2869e-07
3.28957e-08
-9.34127e-08
4.93191e-07
1.28719e-06
1.35037e-06
5.74804e-07
-3.82701e-07
-3.65883e-07
8.60941e-07
1.66833e-06
2.25224e-06
1.71631e-06
8.46269e-07
7.19189e-08
-1.25898e-07
1.81917e-07
7.18048e-07
5.62487e-07
-7.61676e-07
-3.03288e-07
2.7075e-06
2.60516e-06
3.12029e-07
-3.55945e-06
1.18904e-06
6.16199e-06
5.02852e-06
4.85761e-07
-1.13701e-06
3.63975e-07
3.11713e-06
5.2811e-06
5.34614e-06
4.4719e-06
3.53795e-06
2.40089e-06
1.47268e-06
1.21529e-06
9.73809e-07
3.66103e-07
-1.8674e-07
-3.99803e-07
-3.25103e-07
-2.53429e-07
-3.56382e-07
-5.01226e-07
-2.45105e-07
1.19264e-07
2.66633e-07
2.8193e-07
9.07702e-07
1.11243e-06
1.48535e-06
1.70995e-06
1.54803e-06
6.93095e-07
-3.81914e-07
-7.7527e-08
5.62762e-07
1.40524e-06
1.59847e-06
1.14972e-06
1.20503e-06
2.73512e-07
-1.28233e-06
-9.82162e-07
-1.21239e-06
-1.80954e-06
-2.47036e-06
-2.32068e-06
7.29742e-07
3.97679e-06
3.71691e-06
1.00576e-06
3.11275e-07
6.62934e-06
5.67184e-06
-1.12245e-07
-2.46e-06
-3.76155e-07
1.49504e-06
2.1056e-06
2.57911e-06
3.09548e-06
2.94149e-06
1.99263e-06
1.63225e-06
2.15006e-06
2.28437e-06
1.54542e-06
5.93549e-07
-5.32697e-08
-2.31282e-07
-3.00061e-07
-3.41809e-07
-3.6154e-07
-1.10242e-07
4.08576e-07
6.42993e-07
7.71897e-07
1.40945e-06
1.79165e-06
2.21513e-06
2.15289e-06
1.60109e-06
9.34245e-07
2.40509e-07
5.87607e-07
9.94941e-07
1.47691e-06
1.45479e-06
4.6825e-07
6.47412e-07
-3.65629e-07
-1.57869e-06
-2.54252e-06
-2.52846e-06
-3.93098e-06
-7.22722e-06
-5.4259e-06
-2.37433e-06
2.63442e-06
4.54564e-06
5.11922e-06
4.01412e-06
8.91523e-06
8.17739e-06
6.15422e-07
-3.68536e-06
-2.84522e-06
-2.13188e-06
-2.92644e-06
-1.3395e-06
1.32109e-06
1.60552e-06
7.65488e-07
1.05027e-06
2.32635e-06
3.10151e-06
2.71704e-06
1.70175e-06
7.09769e-07
1.02345e-07
-3.78385e-07
-4.03337e-07
-1.70687e-07
-4.61027e-08
2.24787e-07
6.6702e-07
1.04143e-06
1.20583e-06
1.84805e-06
2.59966e-06
2.72491e-06
1.6808e-06
8.63371e-07
1.30086e-06
2.17403e-06
2.59127e-06
1.89892e-06
1.72722e-06
1.25755e-06
2.51174e-07
-5.78166e-07
-6.77412e-07
-1.86243e-06
-4.12662e-06
-3.89093e-06
-5.60897e-06
-7.41523e-06
-3.74818e-06
-5.80806e-07
4.3047e-06
5.51069e-06
4.83124e-06
9.10695e-06
9.41058e-06
2.26877e-06
-3.48102e-06
-4.39412e-06
-5.37942e-06
-6.14511e-06
-2.4896e-06
2.43524e-06
2.3843e-06
3.09645e-07
4.73781e-07
1.93064e-06
2.97389e-06
3.04606e-06
2.24707e-06
1.10381e-06
1.09799e-07
-6.19239e-07
-4.48876e-07
1.4134e-07
2.61005e-07
1.72488e-07
2.90252e-07
6.99214e-07
9.78769e-07
1.27229e-06
1.99485e-06
2.67562e-06
1.91593e-06
7.61949e-07
9.0665e-07
2.19485e-06
3.5653e-06
3.11663e-06
2.54227e-06
2.32398e-06
7.8287e-07
-2.15152e-07
5.19919e-08
-1.88046e-07
-7.57775e-07
-5.1793e-07
-1.73578e-06
-2.41728e-06
-2.41337e-06
-3.14716e-06
1.59758e-06
3.78055e-06
3.35599e-06
6.69507e-06
1.11701e-05
8.47593e-06
3.92897e-06
-9.57645e-08
-1.14994e-06
-1.45826e-06
7.35569e-07
4.37659e-06
5.10914e-06
1.79578e-06
4.66563e-07
1.46755e-06
2.50315e-06
2.68331e-06
1.86717e-06
6.2202e-07
-3.09382e-07
-6.80565e-07
-2.40104e-07
5.23973e-07
7.6075e-07
5.28063e-07
2.65854e-07
5.1853e-07
1.49456e-06
1.30002e-06
9.98443e-07
1.68826e-06
1.77815e-06
7.69625e-07
4.11169e-07
1.39378e-06
3.12492e-06
3.93857e-06
3.77792e-06
3.79816e-06
2.40061e-06
8.29449e-08
5.48293e-07
2.0683e-06
2.16539e-06
4.1554e-07
-9.69127e-07
-3.17326e-07
-7.26561e-07
-1.94495e-06
6.36396e-07
5.43945e-06
2.66529e-06
4.09474e-06
1.01151e-05
7.93315e-06
2.95121e-06
8.17809e-07
3.91582e-07
1.14645e-06
3.56637e-06
6.09438e-06
5.4137e-06
2.95789e-06
1.77378e-06
1.45372e-06
1.45246e-06
1.41696e-06
1.37338e-06
1.19998e-06
7.49233e-07
4.54703e-07
8.76042e-07
1.4485e-06
1.70605e-06
1.50736e-06
9.84945e-07
8.8438e-07
1.55402e-06
2.17489e-06
9.72002e-07
8.71505e-07
1.19061e-06
8.99937e-07
2.11586e-07
4.69695e-07
1.75847e-06
3.18905e-06
4.08918e-06
4.69757e-06
3.98864e-06
1.33633e-06
-1.03768e-07
1.2502e-06
1.01337e-06
-1.2646e-06
-8.89373e-07
9.36765e-07
1.30077e-06
4.08162e-07
3.96341e-06
1.51574e-05
9.63395e-06
2.38291e-06
4.80077e-06
-3.54636e-06
-7.70476e-06
-3.47579e-06
1.08086e-06
3.25896e-06
6.68316e-06
8.97501e-06
7.98207e-06
5.48453e-06
4.45994e-06
4.09333e-06
3.99669e-06
3.85175e-06
3.6673e-06