/*--------------------------------*- C++ -*----------------------------------*\
| =========                 |                                                 |
| \\      /  F ield         | OpenFOAM: The Open Source CFD Toolbox           |
|  \\    /   O peration     | Version:  2.3.0                                 |
|   \\  /    A nd           | Web:      www.OpenFOAM.org                      |
|    \\/     M anipulation  |                                                 |
\*---------------------------------------------------------------------------*/
FoamFile
{
    version     2.0;
    format      ascii;
    class       volScalarField;
    location    "400";
    object      p;
}
// * * * * * * * * * * * * * * * * * * * * * * * * * * * * * * * * * * * * * //

dimensions      [0 2 -2 0 0 0 0];

internalField   nonuniform List<scalar> 
90000
(
-3.91636e-05
-3.20074e-05
-2.2645e-05
-1.12747e-05
1.20297e-06
8.576e-06
7.08681e-06
2.4081e-06
1.12512e-05
4.70818e-05
9.8478e-05
0.000140292
0.000154345
0.000141892
0.000112799
7.32554e-05
3.85658e-05
1.88054e-05
2.08881e-05
3.72488e-05
4.83289e-05
3.88058e-05
4.38969e-06
-4.21754e-05
-9.22951e-05
-0.000124909
-0.000141295
-0.000141519
-0.000121037
-8.00674e-05
-3.42127e-05
-3.38341e-06
5.58658e-06
-1.2829e-06
-1.36643e-05
-2.3041e-05
-2.62267e-05
-2.57831e-05
-2.53472e-05
-2.54082e-05
-2.57288e-05
-2.74331e-05
-3.12062e-05
-3.53689e-05
-3.7958e-05
-4.09176e-05
-4.58288e-05
-4.88726e-05
-4.67011e-05
-4.31586e-05
-3.93552e-05
-3.20792e-05
-2.25544e-05
-1.11086e-05
1.23206e-06
8.34804e-06
6.81584e-06
2.34687e-06
1.15228e-05
4.74476e-05
9.86559e-05
0.000140329
0.000154522
0.000141945
0.000112628
7.28214e-05
3.79051e-05
1.79504e-05
2.02845e-05
3.70791e-05
4.85547e-05
3.92632e-05
4.81733e-06
-4.16287e-05
-9.20943e-05
-0.000124866
-0.000141421
-0.000141751
-0.000121332
-8.02132e-05
-3.4109e-05
-3.12146e-06
5.81291e-06
-1.15542e-06
-1.36548e-05
-2.30826e-05
-2.62528e-05
-2.57311e-05
-2.52546e-05
-2.53443e-05
-2.57101e-05
-2.7415e-05
-3.11734e-05
-3.53418e-05
-3.7924e-05
-4.08663e-05
-4.58282e-05
-4.89527e-05
-4.68361e-05
-4.3351e-05
-3.96226e-05
-3.20856e-05
-2.2258e-05
-1.06792e-05
1.21339e-06
7.81573e-06
6.35837e-06
2.49235e-06
1.21725e-05
4.79804e-05
9.88059e-05
0.000140109
0.000154423
0.000141615
0.000112012
7.17307e-05
3.65355e-05
1.6553e-05
1.94625e-05
3.71138e-05
4.9316e-05
4.03568e-05
5.72673e-06
-4.11462e-05
-9.19666e-05
-0.000125021
-0.000141868
-0.000142382
-0.000121991
-8.04889e-05
-3.38675e-05
-2.68625e-06
6.12549e-06
-1.08139e-06
-1.37915e-05
-2.32836e-05
-2.63841e-05
-2.57115e-05
-2.51731e-05
-2.53215e-05
-2.5751e-05
-2.7427e-05
-3.114e-05
-3.53019e-05
-3.78685e-05
-4.07763e-05
-4.57766e-05
-4.90465e-05
-4.70293e-05
-4.36794e-05
-3.99599e-05
-3.2018e-05
-2.17686e-05
-1.02144e-05
1.09688e-06
6.9525e-06
5.71791e-06
2.90638e-06
1.32285e-05
4.87213e-05
9.88638e-05
0.000139475
0.000153848
0.000140754
0.000110839
6.99161e-05
3.44659e-05
1.45534e-05
1.8417e-05
3.73927e-05
5.06407e-05
4.20776e-05
7.15726e-06
-4.07685e-05
-9.20511e-05
-0.00012546
-0.000142698
-0.000143441
-0.000123017
-8.08598e-05
-3.34479e-05
-2.0364e-06
6.52567e-06
-1.08638e-06
-1.41081e-05
-2.36686e-05
-2.66419e-05
-2.57497e-05
-2.5135e-05
-2.53788e-05
-2.589e-05
-2.74996e-05
-3.11237e-05
-3.52533e-05
-3.77835e-05
-4.06197e-05
-4.56847e-05
-4.91379e-05
-4.72995e-05
-4.41216e-05
-4.03461e-05
-3.19331e-05
-2.11815e-05
-9.72901e-06
8.38129e-07
5.81483e-06
4.97223e-06
3.62472e-06
1.4708e-05
4.9644e-05
9.87894e-05
0.000138376
0.00015286
0.000139255
0.000109022
6.73357e-05
3.1739e-05
1.19313e-05
1.70209e-05
3.77346e-05
5.2336e-05
4.42719e-05
8.92844e-06
-4.05052e-05
-9.23118e-05
-0.0001262
-0.00014387
-0.000144875
-0.000124379
-8.13445e-05
-3.29184e-05
-1.21872e-06
6.96608e-06
-1.19632e-06
-1.46118e-05
-2.42259e-05
-2.70208e-05
-2.58617e-05
-2.51678e-05
-2.55406e-05
-2.61568e-05
-2.7679e-05
-3.11744e-05
-3.52248e-05
-3.76738e-05
-4.03773e-05
-4.55157e-05
-4.93022e-05
-4.76102e-05
-4.45912e-05
-4.06928e-05
-3.19247e-05
-2.07198e-05
-9.43191e-06
3.35e-07
4.47974e-06
4.21856e-06
4.65407e-06
1.66369e-05
5.07362e-05
9.86473e-05
0.00013697
0.000150931
0.000137268
0.000106597
6.39369e-05
2.84276e-05
8.69222e-06
1.51222e-05
3.78424e-05
5.40666e-05
4.66765e-05
1.1067e-05
-4.08095e-05
-9.27163e-05
-0.000127217
-0.000145303
-0.000146604
-0.000126045
-8.19567e-05
-3.23119e-05
-2.94383e-07
7.40423e-06
-1.41147e-06
-1.52809e-05
-2.49145e-05
-2.74914e-05
-2.6048e-05
-2.52835e-05
-2.58059e-05
-2.6544e-05
-2.79758e-05
-3.13396e-05
-3.52765e-05
-3.75874e-05
-4.007e-05
-4.52553e-05
-4.92454e-05
-4.78373e-05
-4.49035e-05
-4.07554e-05
-3.20472e-05
-2.05472e-05
-9.63658e-06
-6.11486e-07
3.01153e-06
3.53752e-06
5.76635e-06
1.88699e-05
5.18376e-05
9.84907e-05
0.000135808
0.000149035
0.000136722
0.000103823
5.98683e-05
2.47503e-05
4.99758e-06
1.29069e-05
3.77178e-05
5.5594e-05
4.89826e-05
1.32992e-05
-4.04796e-05
-9.33726e-05
-0.000128431
-0.000146932
-0.000148539
-0.000127975
-8.27336e-05
-3.16991e-05
6.69633e-07
7.80913e-06
-1.71058e-06
-1.60693e-05
-2.5667e-05
-2.80044e-05
-2.62948e-05
-2.54737e-05
-2.61632e-05
-2.70459e-05
-2.83809e-05
-3.16097e-05
-3.54022e-05
-3.75447e-05
-3.97197e-05
-4.49165e-05
-4.90648e-05
-4.78993e-05
-4.48796e-05
-4.03294e-05
-3.18117e-05
-2.08238e-05
-1.04879e-05
-2.16951e-06
1.46164e-06
2.98878e-06
6.58561e-06
2.08807e-05
5.26686e-05
9.80336e-05
0.00013475
0.000148212
0.000136897
0.000104101
5.65919e-05
2.20178e-05
1.6313e-06
1.12211e-05
3.83273e-05
5.75633e-05
5.13781e-05
1.55919e-05
-3.95285e-05
-9.37488e-05
-0.000129415
-0.00014869
-0.000150786
-0.000130276
-8.37701e-05
-3.11437e-05
1.58549e-06
8.16054e-06
-2.06661e-06
-1.69346e-05
-2.64151e-05
-2.85068e-05
-2.65617e-05
-2.56838e-05
-2.66074e-05
-2.76599e-05
-2.89591e-05
-3.20431e-05
-3.55951e-05
-3.75042e-05
-3.92762e-05
-4.44059e-05
-4.92355e-05
-4.77354e-05
-4.44695e-05
-3.94009e-05
-3.17868e-05
-2.13781e-05
-1.18396e-05
-4.36557e-06
-2.41399e-07
2.72837e-06
7.05759e-06
2.20508e-05
5.27618e-05
9.70181e-05
0.000133396
0.000147883
0.00013815
0.000108514
6.05568e-05
2.30498e-05
-4.45794e-08
1.08308e-05
4.10202e-05
6.14469e-05
5.48147e-05
1.83118e-05
-3.81018e-05
-9.30881e-05
-0.000128967
-0.000149445
-0.000153046
-0.000133464
-8.5797e-05
-3.11914e-05
2.19419e-06
8.33067e-06
-2.45293e-06
-1.78689e-05
-2.70937e-05
-2.8952e-05
-2.68406e-05
-2.59337e-05
-2.69704e-05
-2.82639e-05
-2.96325e-05
-3.2633e-05
-3.59277e-05
-3.75751e-05
-3.8818e-05
-4.35926e-05
-4.84548e-05
-4.71842e-05
-4.36202e-05
-3.80308e-05
-3.09906e-05
-2.18684e-05
-1.33768e-05
-7.05471e-06
-2.21607e-06
2.54987e-06
7.24941e-06
2.23572e-05
5.1655e-05
9.51577e-05
0.000131176
0.000146763
0.000138801
0.00011201
6.74059e-05
2.64969e-05
1.11704e-06
1.07737e-05
4.55654e-05
6.8894e-05
6.07816e-05
2.1779e-05
-3.7116e-05
-9.22127e-05
-0.000126915
-0.000147138
-0.000153734
-0.000136842
-8.93436e-05
-3.29644e-05
1.50133e-06
7.74789e-06
-3.21417e-06
-1.90222e-05
-2.75919e-05
-2.93059e-05
-2.70601e-05
-2.62345e-05
-2.73718e-05
-2.89825e-05
-3.04404e-05
-3.328e-05
-3.60492e-05
-3.76967e-05
-3.85873e-05
-4.28411e-05
-4.73989e-05
-4.63233e-05
-4.23355e-05
-3.6466e-05
-2.93893e-05
-2.1863e-05
-1.45444e-05
-9.67024e-06
-4.35515e-06
2.1592e-06
7.18875e-06
2.16959e-05
4.95115e-05
9.25465e-05
0.000128229
0.000144712
0.000137919
0.000113153
7.35409e-05
3.33816e-05
4.22581e-06
1.03498e-05
4.70554e-05
7.76696e-05
7.29446e-05
3.02545e-05
-3.55229e-05
-9.30677e-05
-0.000124974
-0.00014207
-0.000151269
-0.00013885
-9.37882e-05
-3.70674e-05
-1.76596e-06
5.11581e-06
-3.36515e-06
-1.97764e-05
-2.76903e-05
-2.93801e-05
-2.70539e-05
-2.6304e-05
-2.78663e-05
-2.98596e-05
-3.15207e-05
-3.40979e-05
-3.68027e-05
-3.7698e-05
-3.83775e-05
-4.22169e-05
-4.61965e-05
-4.57094e-05
-4.08109e-05
-3.47995e-05
-2.66744e-05
-2.07586e-05
-1.56606e-05
-1.17086e-05
-6.58122e-06
1.28562e-06
7.32552e-06
2.04909e-05
4.76508e-05
8.89908e-05
0.000124235
0.000142924
0.000137772
0.00011153
7.49111e-05
3.69372e-05
9.0592e-06
9.34579e-06
4.61085e-05
7.98318e-05
8.57011e-05
4.76161e-05
-2.60471e-05
-9.22263e-05
-0.000123856
-0.000135121
-0.000143976
-0.000137201
-9.732e-05
-4.31427e-05
-8.83522e-06
2.56743e-08
-6.27367e-06
-2.10559e-05
-2.77838e-05
-2.9041e-05
-2.6576e-05
-2.59536e-05
-2.79922e-05
-3.05572e-05
-3.25171e-05
-3.51226e-05
-3.74075e-05
-3.73645e-05
-3.8058e-05
-4.16927e-05
-4.51249e-05
-4.48806e-05
-3.9416e-05
-3.31582e-05
-2.60797e-05
-1.90589e-05
-1.4792e-05
-1.27953e-05
-7.91283e-06
-2.0911e-07
6.89469e-06
1.98311e-05
4.56033e-05
8.62502e-05
0.000118434
0.000139665
0.000137821
0.000114618
7.8319e-05
3.95877e-05
1.04961e-05
6.00297e-06
3.5612e-05
7.2455e-05
9.51299e-05
6.65239e-05
-8.30733e-06
-8.52761e-05
-0.000121515
-0.000126915
-0.000131941
-0.000129269
-9.75637e-05
-4.99681e-05
-1.95846e-05
-8.72074e-06
-1.2682e-05
-2.38888e-05
-2.83851e-05
-2.88457e-05
-2.6234e-05
-2.57071e-05
-2.78426e-05
-3.07552e-05
-3.29727e-05
-3.56729e-05
-3.74552e-05
-3.76227e-05
-3.74551e-05
-4.11147e-05
-4.44143e-05
-4.31446e-05
-3.82856e-05
-3.12994e-05
-2.51835e-05
-1.85336e-05
-1.41364e-05
-1.16652e-05
-6.68053e-06
-4.19012e-07
5.78035e-06
1.80726e-05
4.38477e-05
8.09064e-05
0.000112376
0.000134396
0.000135763
0.0001159
8.19805e-05
4.55907e-05
1.80477e-05
6.18697e-06
1.30477e-05
5.03544e-05
8.1206e-05
7.85652e-05
1.40541e-05
-7.14424e-05
-0.000116563
-0.000118673
-0.00011669
-0.000114805
-9.26463e-05
-5.45269e-05
-2.75082e-05
-1.80113e-05
-1.90368e-05
-2.59817e-05
-2.97288e-05
-3.00957e-05
-2.78031e-05
-2.72144e-05
-2.88491e-05
-3.13986e-05
-3.3224e-05
-3.57226e-05
-3.68888e-05
-3.69964e-05
-3.65318e-05
-4.06421e-05
-4.34742e-05
-4.2085e-05
-3.74816e-05
-3.00678e-05
-2.3588e-05
-1.76344e-05
-1.50542e-05
-1.24284e-05
-5.66065e-06
1.64288e-06
7.16721e-06
1.71043e-05
4.10463e-05
7.6967e-05
0.000107762
0.00012822
0.000131913
0.000114876
8.27959e-05
4.92822e-05
2.31645e-05
1.06716e-05
1.04428e-05
2.52114e-05
5.11764e-05
6.76604e-05
2.36643e-05
-5.75913e-05
-0.000109562
-0.000111174
-0.000101503
-9.56412e-05
-8.27082e-05
-5.62438e-05
-3.43615e-05
-2.51824e-05
-2.24535e-05
-2.66709e-05
-3.06057e-05
-3.24963e-05
-3.17725e-05
-3.14553e-05
-3.24797e-05
-3.41216e-05
-3.51733e-05
-3.64355e-05
-3.68297e-05
-3.57187e-05
-3.49402e-05
-4.03916e-05
-4.30394e-05
-4.22115e-05
-3.70749e-05
-3.22034e-05
-2.50686e-05
-1.61338e-05
-1.38928e-05
-1.16664e-05
-6.31014e-06
8.41061e-07
8.28877e-06
1.85999e-05
4.07379e-05
7.33268e-05
0.000103149
0.000123197
0.000126925
0.000111181
8.15059e-05
4.95251e-05
2.4115e-05
1.24061e-05
1.02417e-05
8.97806e-06
2.39189e-05
3.70181e-05
1.47965e-05
-4.89027e-05
-0.000100806
-0.000107428
-9.29976e-05
-7.88779e-05
-6.86159e-05
-5.16853e-05
-3.33569e-05
-2.56822e-05
-2.03415e-05
-2.41695e-05
-3.1437e-05
-3.66781e-05
-3.80543e-05
-3.71038e-05
-3.6586e-05
-3.74586e-05
-3.79947e-05
-3.87049e-05
-3.78474e-05
-3.54038e-05
-3.35659e-05
-3.89612e-05
-4.18905e-05
-4.29917e-05
-3.92507e-05
-3.43327e-05
-2.92228e-05
-2.13506e-05
-1.54114e-05
-8.5873e-06
-3.42989e-06
1.29674e-06
6.4105e-06
1.6585e-05
3.92797e-05
7.13542e-05
0.000100267
0.000118718
0.000120826
0.000105917
7.81168e-05
4.9442e-05
2.53882e-05
9.31513e-06
7.90217e-06
5.74752e-06
1.06955e-05
1.47786e-05
-2.73825e-06
-5.28887e-05
-9.413e-05
-9.22783e-05
-6.88382e-05
-6.36594e-05
-5.92736e-05
-4.81115e-05
-3.084e-05
-1.89241e-05
-8.46123e-06
-1.22912e-05
-2.40862e-05
-3.52843e-05
-4.11824e-05
-4.26076e-05
-4.08516e-05
-4.11288e-05
-4.07787e-05
-4.05123e-05
-3.90767e-05
-3.55037e-05
-3.2617e-05
-3.56504e-05
-3.90166e-05
-4.22936e-05
-4.00281e-05
-3.43306e-05
-3.04867e-05
-2.43675e-05
-1.76314e-05
-9.70782e-06
-2.57316e-06
2.04629e-06
6.19668e-06
1.54372e-05
3.68407e-05
6.74934e-05
9.54689e-05
0.000113573
0.00011493
0.000100073
7.32512e-05
4.7326e-05
2.65748e-05
1.0155e-05
4.14711e-06
1.00236e-06
1.94346e-06
-4.00113e-06
-9.28389e-06
-4.68932e-05
-8.45209e-05
-8.57024e-05
-6.16086e-05
-5.06221e-05
-4.69217e-05
-4.19298e-05
-3.24021e-05
-1.93904e-05
-7.39913e-06
-5.93537e-06
-1.70126e-05
-3.11776e-05
-4.00034e-05
-4.30983e-05
-4.2502e-05
-4.05953e-05
-4.14822e-05
-4.12543e-05
-3.91562e-05
-3.48403e-05
-3.12476e-05
-3.25289e-05
-3.61785e-05
-3.88011e-05
-3.97169e-05
-3.29857e-05
-3.04544e-05
-2.64257e-05
-1.99807e-05
-1.1161e-05
-1.48713e-06
2.16394e-06
5.21158e-06
1.35599e-05
3.36999e-05
6.34822e-05
9.05293e-05
0.000107007
0.00010778
9.2538e-05
6.69308e-05
4.30449e-05
2.52272e-05
1.13074e-05
4.51388e-06
-6.59511e-07
-4.67318e-06
-1.45677e-05
-1.51346e-05
-4.3004e-05
-7.14123e-05
-7.51785e-05
-5.67721e-05
-4.34146e-05
-3.85907e-05
-3.55497e-05
-2.96568e-05
-2.06465e-05
-1.09311e-05
-8.70759e-06
-1.6128e-05
-2.7992e-05
-3.51866e-05
-3.84051e-05
-3.86957e-05
-3.86286e-05
-3.92509e-05
-3.96771e-05
-3.78571e-05
-3.34263e-05
-2.95824e-05
-2.96797e-05
-3.27687e-05
-3.52882e-05
-3.5186e-05
-3.11687e-05
-2.94317e-05
-2.65018e-05
-2.16801e-05
-1.44036e-05
-7.64491e-06
4.97501e-08
3.96762e-06
1.16412e-05
2.97054e-05
5.6849e-05
8.25814e-05
9.81228e-05
9.89982e-05
8.45342e-05
6.04178e-05
3.81922e-05
2.2533e-05
1.14773e-05
5.92603e-06
5.33354e-07
-5.00817e-06
-1.20715e-05
-2.04812e-05
-4.15268e-05
-6.004e-05
-6.32478e-05
-4.97445e-05
-3.54593e-05
-2.97641e-05
-2.88992e-05
-2.61157e-05
-2.12415e-05
-1.61251e-05
-1.45149e-05
-1.895e-05
-2.64659e-05
-3.16941e-05
-3.42902e-05
-3.48655e-05
-3.33527e-05
-3.65123e-05
-3.74104e-05
-3.56601e-05
-3.14297e-05
-2.77885e-05
-2.74274e-05
-2.95191e-05
-3.15849e-05
-3.19361e-05
-2.90896e-05
-2.81187e-05
-2.61111e-05
-2.21559e-05
-1.59564e-05
-9.30649e-06
-2.74991e-06
1.7317e-06
9.11196e-06
2.51769e-05
4.92049e-05
7.26944e-05
8.733e-05
8.87548e-05
7.54441e-05
5.30369e-05
3.26461e-05
1.9214e-05
1.1086e-05
6.90014e-06
2.66164e-06
-5.63795e-06
-1.20606e-05
-2.21754e-05
-3.79461e-05
-4.90991e-05
-4.99596e-05
-4.04059e-05
-2.94779e-05
-2.50044e-05
-2.57454e-05
-2.6031e-05
-2.41088e-05
-2.21552e-05
-2.07529e-05
-2.30332e-05
-2.72187e-05
-3.0053e-05
-3.1849e-05
-3.23893e-05
-3.26081e-05
-3.48403e-05
-3.56376e-05
-3.37778e-05
-2.95132e-05
-2.58868e-05
-2.52759e-05
-2.69199e-05
-2.8554e-05
-2.90838e-05
-2.74489e-05
-2.66836e-05
-2.48595e-05
-2.14982e-05
-1.60698e-05
-1.00694e-05
-4.48579e-06
-1.75635e-07
6.93176e-06
2.09952e-05
4.15464e-05
6.13662e-05
7.42053e-05
7.59076e-05
6.57079e-05
4.74712e-05
2.95511e-05
1.68808e-05
9.25926e-06
5.95107e-06
3.13442e-06
-2.18061e-06
-1.06686e-05
-2.12565e-05
-3.31365e-05
-4.04019e-05
-4.00754e-05
-3.34415e-05
-2.60725e-05
-2.31899e-05
-2.37169e-05
-2.50125e-05
-2.4508e-05
-2.7496e-05
-2.47074e-05
-2.54631e-05
-2.74788e-05
-2.88458e-05
-2.92068e-05
-3.03475e-05
-3.16134e-05
-3.37751e-05
-3.43247e-05
-3.20015e-05
-2.76157e-05
-2.41171e-05
-2.33724e-05
-2.47581e-05
-2.64448e-05
-2.72697e-05
-2.58246e-05
-2.54032e-05
-2.33866e-05
-2.00425e-05
-1.49937e-05
-9.54998e-06
-5.18739e-06
-1.31798e-06
4.52257e-06
1.60522e-05
3.29061e-05
5.02573e-05
6.13933e-05
6.36738e-05
5.58108e-05
4.10579e-05
2.61803e-05
1.53051e-05
8.49973e-06
5.63694e-06
3.75467e-06
-7.74041e-07
-7.85242e-06
-2.01592e-05
-2.84187e-05
-3.33327e-05
-3.22227e-05
-2.71926e-05
-2.27259e-05
-2.01877e-05
-2.19611e-05
-2.30168e-05
-2.35884e-05
-2.53342e-05
-2.55065e-05
-2.61089e-05
-2.83751e-05
-2.75536e-05
-2.79417e-05
-2.90211e-05
-3.06217e-05
-3.25094e-05
-3.28433e-05
-3.04035e-05
-2.60755e-05
-2.2763e-05
-2.19455e-05
-2.29183e-05
-2.41655e-05
-2.50443e-05
-2.38248e-05
-2.41248e-05
-2.26485e-05
-1.94554e-05
-1.45029e-05
-9.55406e-06
-6.03931e-06
-2.95502e-06
2.22383e-06
1.1122e-05
2.41094e-05
3.73133e-05
4.66204e-05
4.96123e-05
4.53337e-05
3.53435e-05
2.43728e-05
1.52957e-05
8.36783e-06
4.76746e-06
3.60441e-06
3.65092e-07
-6.09093e-06
-1.6213e-05
-2.21678e-05
-2.61488e-05
-2.59323e-05
-2.33567e-05
-2.14119e-05
-1.99543e-05
-2.14362e-05
-2.21499e-05
-2.279e-05
-2.38547e-05
-2.54675e-05
-2.53895e-05
-2.6102e-05
-2.60891e-05
-2.63213e-05
-2.76665e-05
-2.99536e-05
-3.21523e-05
-3.20202e-05
-2.92101e-05
-2.48694e-05
-2.13909e-05
-1.99979e-05
-2.03062e-05
-2.11884e-05
-2.2361e-05
-2.05287e-05
-2.18516e-05
-2.12618e-05
-1.85907e-05
-1.39481e-05
-9.04301e-06
-5.80984e-06
-3.1671e-06
8.27879e-07
7.35519e-06
1.60996e-05
2.40765e-05
2.9777e-05
3.23771e-05
3.10764e-05
2.66647e-05
2.10494e-05
1.47015e-05
8.88214e-06
4.82268e-06
3.29743e-06
9.52845e-07
-4.16211e-06
-1.06383e-05
-1.64652e-05
-2.06081e-05
-2.12954e-05
-2.06956e-05
-2.1153e-05
-2.03034e-05
-2.12907e-05
-2.15775e-05
-2.17243e-05
-2.20771e-05
-2.34724e-05
-2.37131e-05
-2.38934e-05
-2.39242e-05
-2.44921e-05
-2.63386e-05
-2.84798e-05
-3.06586e-05
-3.08174e-05
-2.87241e-05
-2.51606e-05
-2.20031e-05
-2.01252e-05
-1.90509e-05
-1.83033e-05
-1.87279e-05
-1.75851e-05
-1.88041e-05
-1.86585e-05
-1.6757e-05
-1.20664e-05
-6.5752e-06
-2.98667e-06
-5.68414e-07
2.62776e-06
7.34978e-06
1.25168e-05
1.62622e-05
1.79757e-05
1.84838e-05
1.78029e-05
1.66635e-05
1.47824e-05
1.2805e-05
9.63392e-06
6.42978e-06
4.63165e-06
2.37378e-06
-2.00903e-06
-7.55283e-06
-1.27628e-05
-1.65736e-05
-1.7341e-05
-1.70582e-05
-1.60755e-05
-1.77826e-05
-1.96101e-05
-2.16484e-05
-2.30071e-05
-2.375e-05
-2.44655e-05
-2.37502e-05
-2.34673e-05
-2.28872e-05
-2.27875e-05
-2.41649e-05
-2.71419e-05
-2.98062e-05
-3.05375e-05
-2.91753e-05
-2.66473e-05
-2.35599e-05
-2.11681e-05
-1.86919e-05
-1.70992e-05
-1.67354e-05
-1.59818e-05
-1.72328e-05
-1.75393e-05
-1.43695e-05
-9.07858e-06
-4.23679e-06
-4.58924e-07
1.90305e-06
4.44053e-06
7.96396e-06
1.16738e-05
1.37772e-05
1.3402e-05
1.13286e-05
9.04392e-06
8.25379e-06
8.81055e-06
1.07153e-05
1.1773e-05
1.10343e-05
8.82265e-06
5.06755e-06
3.56849e-07
-4.05135e-06
-8.16812e-06
-1.13048e-05
-1.27822e-05
-1.2476e-05
-1.32186e-05
-1.54398e-05
-1.88669e-05
-2.2202e-05
-2.44961e-05
-2.58547e-05
-2.70891e-05
-2.73445e-05
-2.6621e-05
-2.54353e-05
-2.50602e-05
-2.62685e-05
-2.83714e-05
-3.02225e-05
-3.09483e-05
-3.00288e-05
-2.86184e-05
-2.60678e-05
-2.28303e-05
-2.03376e-05
-1.72993e-05
-1.57741e-05
-1.38292e-05
-1.53138e-05
-1.73767e-05
-1.70745e-05
-1.36499e-05
-8.03873e-06
-2.58732e-06
2.18975e-06
6.71704e-06
1.10318e-05
1.42345e-05
1.49792e-05
1.29962e-05
8.57831e-06
3.7722e-06
1.1336e-06
3.27654e-06
7.69337e-06
1.29653e-05
1.64371e-05
1.49321e-05
1.08927e-05
4.76554e-06
-5.94655e-07
-4.5574e-06
-6.31348e-06
-6.22385e-06
-5.22162e-06
-8.63257e-06
-1.22654e-05
-1.75296e-05
-2.23952e-05
-2.57297e-05
-2.73799e-05
-2.83697e-05
-2.89763e-05
-2.91729e-05
-2.81906e-05
-2.76891e-05
-2.8474e-05
-3.07379e-05
-3.30521e-05
-3.37203e-05
-3.26107e-05
-3.08058e-05
-2.80691e-05
-2.47597e-05
-2.10693e-05
-1.60043e-05
-1.33562e-05
-1.27292e-05
-1.11977e-05
-1.16626e-05
-1.21906e-05
-1.26635e-05
-1.01809e-05
-7.31085e-06
-3.17782e-06
1.64326e-06
6.15905e-06
9.82212e-06
1.20331e-05
1.20351e-05
9.80732e-06
5.41103e-06
2.26935e-06
3.14854e-06
7.70679e-06
1.34886e-05
1.68681e-05
1.64344e-05
1.32818e-05
7.65649e-06
1.94925e-06
-3.10261e-06
-4.53576e-06
-6.1644e-06
-9.04012e-06
-8.09026e-06
-1.01209e-05
-1.46431e-05
-1.93405e-05
-2.25747e-05
-2.48115e-05
-2.71682e-05
-2.91056e-05
-2.986e-05
-2.97507e-05
-2.95643e-05
-3.07776e-05
-3.15599e-05
-3.36142e-05
-3.39799e-05
-3.22914e-05
-2.96738e-05
-2.63037e-05
-2.33601e-05
-2.14662e-05
-1.84585e-05
-1.5736e-05
-1.47222e-05
-1.24071e-05
-1.07505e-05
-1.12514e-05
-1.1333e-05
-1.25675e-05
-1.15583e-05
-7.99027e-06
-2.62795e-06
2.83189e-06
6.31331e-06
8.07859e-06
8.0088e-06
7.1364e-06
6.04928e-06
5.35825e-06
7.42697e-06
1.16481e-05
1.5694e-05
1.68572e-05
1.48067e-05
1.13116e-05
6.93305e-06
2.88086e-06
-4.64855e-07
-2.8956e-06
-5.10463e-06
-5.83453e-06
-5.87076e-06
-7.42033e-06
-1.08575e-05
-1.45821e-05
-1.69396e-05
-1.79284e-05
-1.89454e-05
-2.10542e-05
-2.34882e-05
-2.53007e-05
-2.63618e-05
-2.95058e-05
-3.15081e-05
-3.33127e-05
-3.48364e-05
-3.48477e-05
-3.35404e-05
-3.10482e-05
-2.75199e-05
-2.24661e-05
-1.95411e-05
-1.70949e-05
-5.80189e-05
-6.25682e-05
-5.19498e-05
-1.61117e-05
3.57255e-05
6.43686e-05
3.02545e-05
-2.82055e-05
-2.78077e-05
4.86017e-05
0.000149477
0.00021964
0.000233979
0.000213561
0.0001662
0.000105939
4.26846e-05
-4.0218e-06
-2.3142e-05
-1.60022e-05
-3.28329e-07
-5.0051e-06
-4.06785e-05
-9.61838e-05
-0.000136355
-0.000152762
-0.000160224
-0.000155643
-0.000129232
-7.24902e-05
-9.47963e-07
5.23905e-05
6.61094e-05
4.50379e-05
1.37275e-05
-1.02504e-05
-2.07043e-05
-2.27663e-05
-2.04512e-05
-1.59509e-05
-1.41448e-05
-1.86955e-05
-2.68058e-05
-3.29815e-05
-3.53825e-05
-3.75287e-05
-4.00049e-05
-4.13391e-05
-4.19853e-05
-4.87488e-05
-5.79876e-05
-6.25231e-05
-5.20201e-05
-1.65074e-05
3.56537e-05
6.49022e-05
3.14008e-05
-2.75753e-05
-2.84352e-05
4.79047e-05
0.000149347
0.000220285
0.000234436
0.000213731
0.000166289
0.000106149
4.26846e-05
-4.30834e-06
-2.37077e-05
-1.64229e-05
-2.88665e-07
-4.51674e-06
-4.0112e-05
-9.61192e-05
-0.0001363
-0.000152699
-0.000160263
-0.000155936
-0.000129877
-7.32628e-05
-1.37888e-06
5.23623e-05
6.62926e-05
4.51764e-05
1.37787e-05
-1.02699e-05
-2.0722e-05
-2.27802e-05
-2.04401e-05
-1.58868e-05
-1.40126e-05
-1.86092e-05
-2.67777e-05
-3.30104e-05
-3.54893e-05
-3.7695e-05
-4.01573e-05
-4.13864e-05
-4.18989e-05
-4.86686e-05
-5.78409e-05
-6.25026e-05
-5.21769e-05
-1.6912e-05
3.56384e-05
6.60052e-05
3.3171e-05
-2.74718e-05
-3.01997e-05
4.62855e-05
0.000149115
0.000221038
0.000234836
0.000213724
0.0001663
0.000106127
4.22678e-05
-5.26033e-06
-2.50251e-05
-1.72707e-05
-1.6334e-07
-3.69266e-06
-3.92516e-05
-9.59477e-05
-0.000136651
-0.000152938
-0.000160567
-0.000156706
-0.000131278
-7.46841e-05
-2.07841e-06
5.24824e-05
6.68083e-05
4.55855e-05
1.40446e-05
-1.02012e-05
-2.0717e-05
-2.27777e-05
-2.03884e-05
-1.57576e-05
-1.38663e-05
-1.85307e-05
-2.67771e-05
-3.30989e-05
-3.56343e-05
-3.79599e-05
-4.03294e-05
-4.12631e-05
-4.15735e-05
-4.83973e-05
-5.74685e-05
-6.23324e-05
-5.21864e-05
-1.73697e-05
3.5695e-05
6.74672e-05
3.5795e-05
-2.79369e-05
-3.33348e-05
4.33373e-05
0.000148329
0.000221762
0.000235116
0.000213352
0.000166087
0.000105748
4.13101e-05
-6.99479e-06
-2.71669e-05
-1.85864e-05
-1.16769e-09
-2.59189e-06
-3.82229e-05
-9.59165e-05
-0.000137573
-0.000153516
-0.000161166
-0.000157957
-0.000133586
-7.68103e-05
-3.06488e-06
5.27291e-05
6.76243e-05
4.62364e-05
1.45323e-05
-1.00533e-05
-2.06949e-05
-2.27536e-05
-2.03018e-05
-1.56101e-05
-1.37438e-05
-1.85218e-05
-2.68657e-05
-3.3314e-05
-3.59012e-05
-3.82303e-05
-4.05725e-05
-4.09925e-05
-4.1001e-05
-4.78477e-05
-5.69081e-05
-6.17155e-05
-5.14595e-05
-1.74988e-05
3.54108e-05
6.84321e-05
3.92798e-05
-2.81385e-05
-3.7419e-05
3.85579e-05
0.000146351
0.000221919
0.000234931
0.00021239
0.000165838
0.000104879
3.97291e-05
-9.57727e-06
-3.0221e-05
-2.05148e-05
3.05263e-08
-1.39594e-06
-3.73963e-05
-9.6138e-05
-0.000139131
-0.000154311
-0.000161916
-0.000159505
-0.000136411
-7.95694e-05
-4.35533e-06
5.30248e-05
6.86395e-05
4.70403e-05
1.52162e-05
-9.86041e-06
-2.06719e-05
-2.27045e-05
-2.01838e-05
-1.54644e-05
-1.3676e-05
-1.86154e-05
-2.70766e-05
-3.37067e-05
-3.63695e-05
-3.8637e-05
-4.08943e-05
-4.08955e-05
-4.04298e-05
-4.71653e-05
-5.65444e-05
-6.09623e-05
-5.0171e-05
-1.65367e-05
3.52248e-05
6.7483e-05
4.26187e-05
-2.56197e-05
-4.02795e-05
3.21555e-05
0.000141936
0.000220462
0.00023384
0.000210584
0.000164464
0.000103197
3.72115e-05
-1.33041e-05
-3.44569e-05
-2.33679e-05
-4.06499e-07
-3.0038e-07
-3.69034e-05
-9.63477e-05
-0.000141487
-0.000155132
-0.000162586
-0.000161065
-0.000139718
-8.27557e-05
-5.8995e-06
5.32913e-05
6.97151e-05
4.78583e-05
1.60396e-05
-9.68833e-06
-2.06885e-05
-2.26451e-05
-2.00624e-05
-1.53699e-05
-1.36898e-05
-1.88011e-05
-2.73695e-05
-3.42525e-05
-3.70177e-05
-3.91634e-05
-4.12537e-05
-4.10953e-05
-4.04466e-05
-4.68024e-05
-5.65215e-05
-6.04616e-05
-4.87336e-05
-1.52503e-05
3.5716e-05
6.43373e-05
4.29252e-05
-2.20554e-05
-3.80883e-05
2.70209e-05
0.00013485
0.000215896
0.000231203
0.000207175
0.000161949
0.000100504
3.31708e-05
-1.87703e-05
-4.01918e-05
-2.77381e-05
-2.09063e-06
-6.06622e-08
-3.7011e-05
-9.66987e-05
-0.000144864
-0.000156108
-0.000163186
-0.000162442
-0.000143486
-8.59912e-05
-7.36456e-06
5.36514e-05
7.07786e-05
4.85351e-05
1.69469e-05
-9.57975e-06
-2.07845e-05
-2.26287e-05
-2.00134e-05
-1.54265e-05
-1.39164e-05
-1.88403e-05
-2.77317e-05
-3.48472e-05
-3.77101e-05
-3.96955e-05
-4.15626e-05
-4.14299e-05
-4.11151e-05
-4.73105e-05
-5.67204e-05
-6.03635e-05
-4.75023e-05
-1.40653e-05
3.63871e-05
5.95826e-05
3.90014e-05
-1.99972e-05
-3.03296e-05
2.72219e-05
0.000128006
0.000208185
0.000226465
0.000203934
0.00015891
9.8207e-05
2.77116e-05
-2.63454e-05
-4.7091e-05
-3.32474e-05
-5.45706e-06
-1.6527e-06
-3.84517e-05
-9.83395e-05
-0.000144237
-0.000156873
-0.00016394
-0.000164539
-0.000147811
-8.94906e-05
-8.40891e-06
5.4633e-05
7.21448e-05
4.91779e-05
1.78752e-05
-9.59832e-06
-2.08623e-05
-2.26391e-05
-2.0164e-05
-1.57578e-05
-1.45177e-05
-1.95454e-05
-2.83229e-05
-3.5557e-05
-3.83347e-05
-4.01204e-05
-4.18115e-05
-4.16425e-05
-4.19328e-05
-4.81177e-05
-5.6197e-05
-5.89053e-05
-4.64381e-05
-1.35018e-05
3.64864e-05
5.29543e-05
3.24494e-05
-2.10181e-05
-2.25203e-05
3.72158e-05
0.000123745
0.000199531
0.000220564
0.000201496
0.000158813
9.69825e-05
2.44705e-05
-3.46319e-05
-5.39404e-05
-3.83497e-05
-9.70117e-06
-5.51107e-06
-4.21754e-05
-0.000101831
-0.000144721
-0.000156178
-0.000162587
-0.000166152
-0.000155068
-9.58932e-05
-9.93966e-06
5.59811e-05
7.39751e-05
5.01168e-05
1.87501e-05
-9.8061e-06
-2.0878e-05
-2.25224e-05
-2.03519e-05
-1.64394e-05
-1.55393e-05
-2.06863e-05
-2.93629e-05
-3.66097e-05
-3.89806e-05
-4.05028e-05
-4.23379e-05
-4.17392e-05
-4.21531e-05
-4.81102e-05
-5.44081e-05
-5.6823e-05
-4.52892e-05
-1.39555e-05
3.01048e-05
4.63528e-05
2.6036e-05
-2.2991e-05
-1.6823e-05
4.17936e-05
0.000120962
0.000190224
0.000213482
0.000198665
0.000160565
0.000101267
2.70623e-05
-3.72972e-05
-6.11668e-05
-4.18842e-05
-1.09541e-05
-9.19908e-06
-4.78912e-05
-0.000107492
-0.000147863
-0.000155423
-0.00015769
-0.000162604
-0.000162856
-0.000106553
-1.5868e-05
5.52887e-05
7.56945e-05
5.0669e-05
1.86594e-05
-9.95771e-06
-2.0678e-05
-2.22399e-05
-2.04688e-05
-1.72164e-05
-1.67828e-05
-2.21096e-05
-3.07568e-05
-3.83192e-05
-3.98608e-05
-4.0808e-05
-4.27258e-05
-4.19547e-05
-4.18686e-05
-4.71789e-05
-5.15517e-05
-5.39147e-05
-4.35507e-05
-1.53703e-05
2.37333e-05
3.91783e-05
2.1599e-05
-2.07885e-05
-1.29667e-05
4.59153e-05
0.000118405
0.000180921
0.000206013
0.000194515
0.000159864
0.000105975
3.52234e-05
-3.1787e-05
-6.513e-05
-4.68031e-05
-1.14692e-05
-7.30249e-06
-4.7322e-05
-0.000110087
-0.000152254
-0.000157812
-0.000152947
-0.000162768
-0.000167256
-0.000119428
-2.70001e-05
4.95023e-05
7.34505e-05
4.89683e-05
1.66529e-05
-1.02826e-05
-2.0166e-05
-2.14902e-05
-2.03451e-05
-1.79356e-05
-1.81252e-05
-2.35978e-05
-3.22503e-05
-3.95312e-05
-4.11877e-05
-4.14232e-05
-4.29462e-05
-4.21794e-05
-4.1134e-05
-4.52158e-05
-4.84972e-05
-5.05876e-05
-4.06628e-05
-1.6726e-05
1.717e-05
3.08267e-05
1.87395e-05
-1.70222e-05
-9.43106e-06
4.74971e-05
0.000114943
0.000171425
0.000198301
0.000190834
0.000158279
0.000105744
4.01647e-05
-2.21095e-05
-5.88351e-05
-4.77141e-05
-1.16853e-05
-3.24647e-06
-4.02916e-05
-0.000104222
-0.000150798
-0.000159706
-0.00015039
-0.000158014
-0.000166076
-0.000129806
-4.10721e-05
3.83292e-05
6.67255e-05
4.45805e-05
1.43377e-05
-1.03719e-05
-1.91416e-05
-2.03792e-05
-1.99841e-05
-1.85677e-05
-1.94251e-05
-2.50672e-05
-3.37324e-05
-4.09815e-05
-4.28819e-05
-4.23825e-05
-4.34696e-05
-4.22089e-05
-4.03837e-05
-4.35178e-05
-4.56553e-05
-4.60488e-05
-3.74204e-05
-1.6653e-05
1.21149e-05
2.72078e-05
1.61269e-05
-1.29342e-05
-5.58237e-06
4.88569e-05
0.000110563
0.000162296
0.000189882
0.000186323
0.000157293
0.000105307
3.98857e-05
-1.72603e-05
-4.94321e-05
-4.41409e-05
-8.00837e-06
2.85776e-06
-2.804e-05
-9.20152e-05
-0.000144119
-0.000158805
-0.000147748
-0.000149717
-0.00017049
-0.000133794
-5.41228e-05
2.37896e-05
5.62352e-05
3.849e-05
1.13899e-05
-1.04281e-05
-1.75908e-05
-1.93002e-05
-1.96686e-05
-1.93048e-05
-2.07577e-05
-2.64761e-05
-3.49441e-05
-4.24313e-05
-4.38012e-05
-4.37467e-05
-4.48227e-05
-4.30147e-05
-4.00949e-05
-4.16789e-05
-4.28286e-05
-4.27113e-05
-3.48296e-05
-1.63401e-05
9.1403e-06
2.35824e-05
1.47903e-05
-9.16581e-06
-2.61053e-06
4.91851e-05
0.000109488
0.000157109
0.000181166
0.00018021
0.000155324
0.000104958
3.95772e-05
-1.73074e-05
-4.52049e-05
-4.00889e-05
-9.63956e-07
8.56315e-06
-1.17312e-05
-7.08371e-05
-0.000131652
-0.000156925
-0.000149063
-0.000142965
-0.000153549
-0.000126822
-5.85179e-05
1.21603e-05
4.58509e-05
3.14566e-05
6.82632e-06
-1.18114e-05
-1.8922e-05
-2.11511e-05
-2.1655e-05
-2.13105e-05
-2.26609e-05
-2.82575e-05
-3.60633e-05
-4.35087e-05
-4.49414e-05
-4.52102e-05
-4.67658e-05
-4.48721e-05
-4.11177e-05
-4.04331e-05
-4.1206e-05
-3.99024e-05
-3.25394e-05
-1.62736e-05
5.97945e-06
2.0778e-05
1.5214e-05
-3.09873e-06
1.55045e-06
4.87755e-05
0.000103729
0.000149554
0.000172796
0.000175036
0.000152552
0.00010419
3.95103e-05
-1.65693e-05
-4.41306e-05
-3.94596e-05
-9.98935e-06
7.58503e-06
-4.42595e-07
-4.9463e-05
-0.00011164
-0.000145293
-0.000149957
-0.000143685
-0.000142253
-0.000115748
-5.79096e-05
5.30116e-06
3.9254e-05
2.69367e-05
4.68181e-06
-1.34122e-05
-2.23225e-05
-2.6239e-05
-2.72099e-05
-2.62855e-05
-2.68608e-05
-3.12932e-05
-3.8164e-05
-4.45071e-05
-4.62074e-05
-4.60261e-05
-4.80724e-05
-4.67915e-05
-4.36906e-05
-4.12094e-05
-4.16541e-05
-3.93241e-05
-3.09082e-05
-1.51495e-05
4.50299e-06
1.7825e-05
1.49228e-05
2.01081e-06
6.94806e-06
5.08388e-05
9.79643e-05
0.000140579
0.000163666
0.000168603
0.000149533
0.000103446
3.93459e-05
-1.62863e-05
-4.34705e-05
-3.91532e-05
-1.50652e-05
2.72444e-06
-5.2471e-06
-4.02995e-05
-8.62797e-05
-0.00012624
-0.000138827
-0.000133466
-0.000123887
-9.84644e-05
-5.01347e-05
9.83348e-08
3.08387e-05
2.23883e-05
2.20421e-06
-1.68917e-05
-2.81503e-05
-3.35558e-05
-3.46167e-05
-3.30506e-05
-3.27187e-05
-3.56592e-05
-4.11319e-05
-4.64242e-05
-4.75055e-05
-4.6772e-05
-4.64792e-05
-4.50161e-05
-4.50354e-05
-4.25096e-05
-4.12026e-05
-3.95624e-05
-3.14258e-05
-1.50089e-05
4.21544e-06
1.61621e-05
1.42365e-05
4.35486e-06
9.94739e-06
4.61483e-05
9.24e-05
0.000131254
0.00015543
0.000161889
0.000143821
9.96124e-05
3.88552e-05
-1.382e-05
-4.03557e-05
-3.8543e-05
-1.83766e-05