/*--------------------------------*- C++ -*----------------------------------*\
| =========                 |                                                 |
| \\      /  F ield         | OpenFOAM: The Open Source CFD Toolbox           |
|  \\    /   O peration     | Version:  2.3.0                                 |
|   \\  /    A nd           | Web:      www.OpenFOAM.org                      |
|    \\/     M anipulation  |                                                 |
\*---------------------------------------------------------------------------*/
FoamFile
{
    version     2.0;
    format      ascii;
    class       surfaceScalarField;
    location    "400";
    object      phi;
}
// * * * * * * * * * * * * * * * * * * * * * * * * * * * * * * * * * * * * * //

dimensions      [0 3 -1 0 0 0 0];

internalField   nonuniform List<scalar> 
263700
(
2.92949e-06
-9.60598e-08
-1.45171e-08
2.90713e-06
-1.47522e-07
-1.35163e-07
2.90163e-06
-1.2346e-07
-3.36222e-07
2.92861e-06
-2.88872e-08
-5.84871e-07
2.97045e-06
6.83709e-08
-7.14264e-07
2.97754e-06
5.4046e-08
-5.77265e-07
2.90602e-06
-7.26993e-08
-2.72156e-07
2.81198e-06
-1.70884e-07
-1.60796e-07
2.79914e-06
-1.34757e-07
-3.84396e-07
2.94085e-06
-3.01648e-09
-7.43996e-07
3.18411e-06
1.1529e-07
-8.84806e-07
3.42509e-06
1.78927e-07
-7.25887e-07
3.56306e-06
2.09649e-07
-3.78405e-07
3.62293e-06
2.29627e-07
1.4604e-08
3.59535e-06
2.81476e-07
2.93729e-07
3.50627e-06
2.41022e-07
5.2262e-07
3.39952e-06
7.68453e-08
6.95224e-07
3.33402e-06
-1.98334e-07
8.03636e-07
3.33835e-06
-4.44854e-07
7.98332e-07
3.40018e-06
-5.58637e-07
6.94846e-07
3.45543e-06
-5.02158e-07
5.48674e-07
3.45409e-06
-3.1412e-07
4.19485e-07
3.37854e-06
-8.14763e-08
3.0926e-07
3.2467e-06
1.25455e-07
1.97153e-07
3.09059e-06
2.96292e-07
5.47308e-08
2.96776e-06
3.31804e-07
-5.65478e-08
2.87423e-06
3.23467e-07
-1.77153e-07
2.82907e-06
2.47255e-07
-2.82374e-07
2.8631e-06
1.14591e-07
-3.86105e-07
2.97292e-06
-2.36941e-09
-4.79611e-07
3.10017e-06
-3.03815e-08
-5.2941e-07
3.18446e-06
1.94901e-08
-5.09512e-07
3.21069e-06
8.02186e-08
-4.33475e-07
3.1925e-06
1.20408e-07
-3.50949e-07
3.15898e-06
1.26224e-07
-3.05029e-07
3.13759e-06
1.03786e-07
-2.92919e-07
3.13649e-06
6.69105e-08
-2.92273e-07
3.14314e-06
5.45605e-08
-3.05826e-07
3.14873e-06
7.67373e-08
-3.36535e-07
3.15952e-06
9.26341e-08
-3.50562e-07
3.17422e-06
7.51058e-08
-3.11464e-07
3.182e-06
4.34042e-08
-2.3478e-07
3.17765e-06
2.95927e-08
-1.64165e-07
3.17057e-06
2.74865e-08
-1.10052e-07
3.16566e-06
2.30588e-08
-5.16016e-08
3.14269e-06
2.7817e-08
1.48645e-08
3.0966e-06
5.52759e-08
4.89247e-08
3.0504e-06
5.27406e-08
5.35453e-08
3.01581e-06
1.15193e-08
4.85959e-08
-3.49236e-08
4.82449e-08
9.9869e-06
-3.19672e-07
-2.97324e-07
9.93114e-06
-3.87814e-07
-6.57362e-07
9.92199e-06
-2.73436e-07
-1.09335e-06
9.97082e-06
-2.42954e-08
-1.48412e-06
1.0027e-05
1.72321e-07
-1.563e-06
1.00068e-05
8.39e-08
-1.2273e-06
9.88032e-06
-2.46773e-07
-7.58459e-07
9.78339e-06
-4.57879e-07
-7.04919e-07
9.8868e-06
-2.92203e-07
-1.16494e-06
1.02532e-05
5.10148e-08
-1.63115e-06
1.07429e-05
3.24855e-07
-1.61525e-06
1.11714e-05
4.24331e-07
-1.07663e-06
1.14127e-05
4.33935e-07
-2.5144e-07
1.15105e-05
4.44463e-07
4.5946e-07
1.14734e-05
4.23549e-07
1.03825e-06
1.13522e-05
1.89375e-07
1.45357e-06
1.1205e-05
-3.11451e-07
1.72042e-06
1.11013e-05
-9.79499e-07
1.80366e-06
1.10625e-05
-1.47705e-06
1.66653e-06
1.10594e-05
-1.5829e-06
1.35924e-06
1.10144e-05
-1.26397e-06
9.83593e-07
1.08811e-05
-6.52524e-07
6.29935e-07
1.06622e-05
1.58794e-08
3.02776e-07
1.04008e-05
5.6879e-07
-2.12922e-08
1.01567e-05
8.84608e-07
-2.7423e-07
1.00019e-05
9.21864e-07
-5.60308e-07
9.92503e-06
8.42251e-07
-7.9765e-07
9.93808e-06
5.94947e-07
-9.78869e-07
1.00544e-05
2.53514e-07
-1.12036e-06
1.02423e-05
-2.01683e-09
-1.21367e-06
1.04192e-05
-2.79856e-08
-1.22486e-06
1.05194e-05
1.22105e-07
-1.14025e-06
1.05379e-05
2.81894e-07
-9.98719e-07
1.05028e-05
3.73003e-07
-8.76938e-07
1.0458e-05
3.74695e-07
-8.2608e-07
1.04372e-05
3.13467e-07
-8.2981e-07
1.04429e-05
2.32333e-07
-8.56271e-07
1.04583e-05
2.2062e-07
-9.07045e-07
1.04804e-05
2.8751e-07
-9.74532e-07
1.05163e-05
3.26494e-07
-9.88291e-07
1.0553e-05
2.75977e-07
-8.91184e-07
1.05699e-05
1.90544e-07
-7.21021e-07
1.05641e-05
1.43904e-07
-5.49765e-07
1.05519e-05
1.21107e-07
-3.95043e-07
1.0534e-05
9.50656e-08
-2.38666e-07
1.0482e-05
8.01372e-08
-8.51353e-08
1.0393e-05
8.42424e-08
2.02717e-08
1.02969e-05
5.19774e-08
4.28043e-08
1.02016e-05
-4.86198e-08
2.3128e-08
-1.75467e-07
-7.21261e-08
1.91188e-05
-6.48135e-07
-5.34861e-07
1.89903e-05
-6.94541e-07
-1.08844e-06
1.89433e-05
-4.24118e-07
-1.7362e-06
1.89889e-05
3.02703e-08
-2.26269e-06
1.90494e-05
3.23324e-07
-2.32046e-06
1.90016e-05
1.16928e-07
-1.83468e-06
1.88051e-05
-4.67975e-07
-1.20811e-06
1.86484e-05
-7.93047e-07
-1.1473e-06
1.87693e-05
-4.56994e-07
-1.72637e-06
1.92484e-05
1.34886e-07
-2.26974e-06
1.98995e-05
5.69454e-07
-2.16053e-06
2.04809e-05
6.54824e-07
-1.35625e-06
2.08443e-05
5.55291e-07
-1.84918e-07
2.10417e-05
4.88744e-07
7.96241e-07
2.10759e-05
2.96886e-07
1.6064e-06
2.09813e-05
-2.1988e-07
2.17695e-06
2.07976e-05
-1.12886e-06
2.52704e-06
2.05975e-05
-2.22178e-06
2.60728e-06
2.04245e-05
-2.94908e-06
2.38083e-06
2.02774e-05
-2.96502e-06
1.90859e-06
2.00999e-05
-2.25736e-06
1.32379e-06
1.98625e-05
-1.08351e-06
7.49245e-07
1.95779e-05
1.56453e-07
1.93191e-07
1.9289e-05
1.03663e-06
-2.48315e-07
1.90518e-05
1.50073e-06
-6.7898e-07
1.89352e-05
1.59038e-06
-1.10418e-06
1.89056e-05
1.4314e-06
-1.42475e-06
1.89574e-05
1.00009e-06
-1.64826e-06
1.90959e-05
4.40624e-07
-1.79935e-06
1.92914e-05
4.86702e-08
-1.88011e-06
1.94681e-05
3.77188e-08
-1.86064e-06
1.95674e-05
3.00563e-07
-1.73003e-06
1.9588e-05
5.58069e-07
-1.53692e-06
1.95576e-05
6.84984e-07
-1.37611e-06
1.95211e-05
6.65755e-07
-1.31201e-06
1.95106e-05
5.5539e-07
-1.32847e-06
1.95257e-05
4.29293e-07
-1.38483e-06
1.95534e-05
4.30436e-07
-1.48361e-06
1.96012e-05
5.67755e-07
-1.61699e-06
1.96765e-05
6.59321e-07
-1.6875e-06
1.97522e-05
5.99004e-07
-1.60725e-06
1.97972e-05
4.71259e-07
-1.40696e-06
1.98118e-05
3.86352e-07
-1.16669e-06
1.98223e-05
3.20415e-07
-9.17277e-07
1.98338e-05
2.3782e-07
-6.58571e-07
1.98113e-05
1.75116e-07
-4.16857e-07
1.97399e-05
1.36223e-07
-2.39938e-07
1.96379e-05
3.14603e-08
-1.38645e-07
1.95011e-05
-1.6672e-07
-1.10632e-07
-4.22144e-07
-1.99843e-07
3.07442e-05
-1.11263e-06
-5.75962e-07
3.0454e-05
-1.12885e-06
-1.29738e-06
3.03135e-05
-6.2643e-07
-2.25824e-06
3.03499e-05
1.41272e-07
-3.09341e-06
3.04329e-05
5.78565e-07
-3.24642e-06
3.03468e-05
2.20375e-07
-2.59055e-06
2.99968e-05
-6.81336e-07
-1.69499e-06
2.96317e-05
-1.14719e-06
-1.53574e-06
2.9615e-05
-6.0742e-07
-2.27268e-06
3.01052e-05
2.78949e-07
-3.02955e-06
3.08836e-05
8.92584e-07
-2.95253e-06
3.16303e-05
9.38096e-07
-1.94211e-06
3.21551e-05
6.40508e-07
-4.28065e-07
3.25081e-05
4.08752e-07
9.19384e-07
3.26696e-05
-3.08167e-08
2.03042e-06
3.26244e-05
-8.96939e-07
2.83646e-06
3.23662e-05
-2.28283e-06
3.35619e-06
3.19804e-05
-3.8802e-06
3.52343e-06
3.15742e-05
-4.90959e-06
3.2913e-06
3.12194e-05
-4.86067e-06
2.71493e-06
3.09014e-05
-3.72089e-06
1.94734e-06
3.06019e-05
-1.88241e-06
1.14671e-06
3.03173e-05
4.28359e-08
3.50208e-07
3.00681e-05
1.33563e-06
-3.13197e-07
2.9896e-05
2.03919e-06
-9.36433e-07
2.98602e-05
2.23889e-06
-1.52631e-06
2.98995e-05
2.02856e-06
-1.96445e-06
2.99891e-05
1.42887e-06
-2.26422e-06
3.01327e-05
6.51561e-07
-2.45127e-06
3.03145e-05
1.16098e-07
-2.53643e-06
3.04753e-05
1.18907e-07
-2.49626e-06
3.05699e-05
4.94531e-07
-2.31956e-06
3.06001e-05
8.38318e-07
-2.05937e-06
3.05875e-05
9.80021e-07
-1.83291e-06
3.05724e-05
9.18253e-07
-1.72914e-06
3.05813e-05
7.42234e-07
-1.73471e-06
3.06079e-05
5.56853e-07
-1.79629e-06
3.0644e-05
5.64429e-07
-1.92731e-06
3.07158e-05
7.87839e-07
-2.14385e-06
3.08403e-05
9.70067e-07
-2.33282e-06
3.09785e-05
9.52851e-07
-2.36923e-06
3.10865e-05
8.43794e-07
-2.26172e-06
3.11675e-05
7.70595e-07
-2.06587e-06
3.12596e-05
6.75218e-07
-1.7861e-06
3.13763e-05
5.07069e-07
-1.43025e-06
3.14776e-05
3.53786e-07
-1.0715e-06
3.15283e-05
2.38217e-07
-7.85289e-07
3.15159e-05
2.43479e-08
-5.54079e-07
3.13883e-05
-3.36311e-07
-3.35171e-07
-7.76077e-07
-2.58449e-07
4.52704e-05
-1.76519e-06
-3.8424e-07
4.46485e-05
-1.79396e-06
-1.14766e-06
4.42685e-05
-1.02881e-06
-2.51072e-06
4.42618e-05
1.89583e-07
-3.9373e-06
4.44318e-05
9.0954e-07
-4.47456e-06
4.43756e-05
4.22906e-07
-3.73016e-06
4.38462e-05
-8.51156e-07
-2.45146e-06
4.31315e-05
-1.49974e-06
-2.06781e-06
4.27936e-05
-6.99505e-07
-3.024e-06
4.31622e-05
5.83035e-07
-4.20879e-06
4.40151e-05
1.42465e-06
-4.3214e-06
4.49163e-05
1.4258e-06
-3.11126e-06
4.55913e-05
7.79524e-07
-1.12653e-06
4.60912e-05
3.12843e-07
7.92644e-07
4.63982e-05
-4.62182e-07
2.39674e-06
4.64246e-05
-1.74954e-06
3.61253e-06
4.60613e-05
-3.68038e-06
4.43194e-06
4.5369e-05
-5.8892e-06
4.7702e-06
4.45441e-05
-7.38024e-06
4.60002e-06
4.38079e-05
-7.4269e-06
3.98873e-06
4.32483e-05
-5.94206e-06
3.0924e-06
4.28709e-05
-3.40562e-06
2.0758e-06
4.26331e-05
-6.35071e-07
1.00021e-06
4.2505e-05
1.35231e-06
-6.37242e-08
4.24879e-05
2.40214e-06
-9.47544e-07
4.26202e-05
2.81557e-06
-1.78566e-06
4.28067e-05
2.5972e-06
-2.40118e-06
4.29957e-05
1.84117e-06
-2.82441e-06
4.31837e-05
8.34857e-07
-3.07965e-06
4.33682e-05
1.27582e-07
-3.17479e-06
4.35127e-05
1.21005e-07
-3.10195e-06
4.35978e-05
6.00648e-07
-2.86507e-06
4.36394e-05
1.02083e-06
-2.51979e-06
4.3656e-05
1.16131e-06
-2.20421e-06
4.36818e-05
1.0396e-06
-2.04139e-06
4.37318e-05
7.84608e-07
-2.01809e-06
4.37827e-05
5.18248e-07
-2.0486e-06
4.38222e-05
4.99465e-07
-2.15397e-06
4.39007e-05
7.92252e-07
-2.40672e-06
4.40568e-05
1.07472e-06
-2.69734e-06
4.42472e-05
1.12635e-06
-2.8665e-06
4.44214e-05
1.09386e-06
-2.94029e-06
4.45968e-05
1.13519e-06
-2.97366e-06
4.48289e-05
1.11685e-06
-2.8733e-06
4.5141e-05
9.11645e-07
-2.55408e-06
4.54947e-05
6.55669e-07
-2.12512e-06
4.58408e-05
4.34161e-07
-1.74647e-06
4.61225e-05
6.58947e-08
-1.36856e-06
4.61818e-05
-5.44164e-07
-8.32562e-07
-1.25476e-06
-3.40904e-07
6.29575e-05
-2.6772e-06
-1.27549e-07
6.18653e-05
-2.82658e-06
-4.64341e-07
6.0928e-05
-1.85033e-06
-2.05097e-06
6.06399e-05
-1.03159e-07
-4.31327e-06
6.08878e-05
1.07003e-06
-5.72452e-06
6.10073e-05
5.81735e-07
-5.25699e-06
6.04173e-05
-1.05865e-06
-3.61281e-06
5.93223e-05
-1.95535e-06
-2.82133e-06
5.85177e-05
-8.67163e-07
-3.9784e-06
5.86418e-05
1.01404e-06
-5.95548e-06
5.95566e-05
2.25848e-06
-6.6966e-06
6.06745e-05
2.29141e-06
-5.48941e-06
6.15142e-05
1.35235e-06
-2.94067e-06
6.20643e-05
3.56419e-07
-6.04578e-08
6.23868e-05
-7.82626e-07
2.39538e-06
6.2397e-05
-2.59876e-06
4.43862e-06
6.18758e-05
-5.14206e-06
5.86987e-06
6.07722e-05
-8.02919e-06
6.50583e-06
5.92992e-05
-1.01415e-05
6.39804e-06
5.78655e-05
-1.05697e-05
5.76328e-06
5.67771e-05
-9.04544e-06
4.81936e-06
5.61542e-05
-5.98498e-06
3.68822e-06
5.5926e-05
-2.316e-06
2.3451e-06
5.59812e-05
7.36228e-07
7.918e-07
5.62291e-05
2.47834e-06
-6.27298e-07
5.6642e-05
3.39291e-06
-1.93662e-06
5.70838e-05
3.31448e-06
-2.87316e-06
5.74744e-05
2.41809e-06
-3.47966e-06
5.77995e-05
1.12069e-06
-3.81101e-06
5.80613e-05
1.36743e-07
-3.87618e-06
5.82374e-05
1.13837e-08
-3.69112e-06
5.83394e-05
5.18275e-07
-3.31681e-06
5.84149e-05
9.70092e-07
-2.83454e-06
5.84913e-05
1.0806e-06
-2.39255e-06
5.86019e-05
8.79053e-07
-2.15227e-06
5.87513e-05
5.44301e-07
-2.10954e-06
5.88862e-05
1.96365e-07
-2.11583e-06
5.89676e-05
1.16347e-07
-2.15313e-06
5.90639e-05
4.40089e-07
-2.37555e-06
5.9245e-05
8.21931e-07
-2.71292e-06
5.9457e-05
9.42527e-07
-2.91991e-06
5.96317e-05
9.67661e-07
-3.04399e-06
5.98213e-05
1.14563e-06
-3.2871e-06
6.01391e-05
1.3111e-06
-3.54883e-06
6.06363e-05
1.20379e-06
-3.53892e-06
6.12921e-05
9.3333e-07
-3.2669e-06
6.20816e-05
6.59736e-07
-3.00173e-06
6.29445e-05
1.62372e-07
-2.70129e-06
6.35915e-05
-7.54319e-07
-1.95034e-06
-1.86664e-06
-8.28763e-07
8.31234e-05
-3.85387e-06
-5.35822e-07
8.20016e-05
-4.3478e-06
3.42194e-07
8.03993e-05
-3.34644e-06
-6.02394e-07
7.93874e-05
-1.08481e-06
-3.40934e-06
7.93696e-05
6.96503e-07
-6.12001e-06
7.96221e-05
4.23066e-07
-6.58699e-06
7.90896e-05
-1.47353e-06
-4.87467e-06
7.76434e-05
-2.6962e-06
-3.49811e-06
7.62338e-05
-1.50474e-06
-4.56323e-06
7.59609e-05
1.04613e-06
-7.57857e-06
7.6977e-05
2.97825e-06
-9.80459e-06
7.86255e-05
3.31005e-06
-9.50282e-06
8.00786e-05
2.36826e-06
-6.96415e-06
8.08959e-05
1.00214e-06
-3.26848e-06
8.10589e-05
-5.66364e-07
6.05078e-07
8.0629e-05
-2.77883e-06
4.11902e-06
7.95496e-05
-5.99177e-06
6.96079e-06
7.77989e-05
-9.59522e-06
8.43574e-06
7.55071e-05
-1.24143e-05
8.52196e-06
7.31102e-05
-1.35328e-05
7.77812e-06
7.11219e-05
-1.251e-05
6.79324e-06
6.99018e-05
-9.51699e-06
5.76629e-06
6.94778e-05
-5.34568e-06
4.46516e-06
6.96801e-05
-1.25271e-06
2.65066e-06
7.02855e-05
1.84389e-06
3.99257e-07
7.10901e-05
3.82415e-06
-1.73557e-06
7.18639e-05
4.48402e-06
-3.44961e-06
7.24989e-05
3.74244e-06
-4.5276e-06
7.29978e-05
2.14024e-06
-5.01634e-06
7.33872e-05
6.66891e-07
-4.97882e-06
7.36527e-05
1.29416e-07
-4.50453e-06
7.38259e-05
3.90813e-07
-3.78481e-06
7.39946e-05
6.76397e-07
-3.00549e-06
7.42063e-05
6.32003e-07
-2.3338e-06
7.44966e-05
2.66076e-07
-1.94624e-06
7.48631e-05
-1.81787e-07
-1.86551e-06
7.52236e-05
-5.98135e-07
-1.88285e-06
7.54835e-05
-7.56132e-07
-1.86025e-06
7.56993e-05
-4.67553e-07
-2.00111e-06
7.59894e-05
-1.40743e-09
-2.38166e-06
7.63043e-05
2.42512e-07
-2.65556e-06
7.65102e-05
3.52829e-07
-2.7079e-06
7.66447e-05
6.30662e-07
-2.87742e-06
7.68949e-05
9.55402e-07
-3.29465e-06
7.73769e-05
9.90439e-07
-3.5963e-06
7.81042e-05
7.77102e-07
-3.59042e-06
7.91326e-05
5.47843e-07
-3.6385e-06
8.05441e-05
6.68457e-08
-3.85942e-06
8.20818e-05
-1.02773e-06
-3.55129e-06
-2.54926e-06
-2.23365e-06
0.000103169
-5.12816e-06
-1.99358e-06
0.00010313
-6.24974e-06
9.5826e-08
0.000101746
-5.58264e-06
7.63956e-07
0.000100188
-3.09525e-06
-1.29267e-06
9.96033e-05
-6.12977e-07
-4.89796e-06
9.97201e-05
-3.50402e-07
-6.79028e-06
9.91975e-05
-2.21351e-06
-5.56016e-06
9.73368e-05
-3.69714e-06
-3.56594e-06
9.49682e-05
-2.6645e-06
-3.99596e-06
9.3721e-05
2.80901e-07
-7.65087e-06
9.43693e-05
2.86082e-06
-1.17715e-05
9.65592e-05
3.57504e-06
-1.35238e-05
9.93781e-05
2.76959e-06
-1.23923e-05
0.000101838
1.54141e-06
-9.31459e-06
0.000102955
1.29873e-07
-4.90113e-06
0.00010223
-1.92981e-06
2.16544e-07
9.98433e-05
-4.91434e-06
5.2402e-06
9.64457e-05
-8.9873e-06
8.86437e-06
9.26276e-05
-1.25094e-05
1.00971e-05
8.88887e-05
-1.45376e-05
9.46393e-06
8.57172e-05
-1.45714e-05
8.25595e-06
8.35769e-05
-1.2539e-05
7.28934e-06
8.26368e-05
-8.89324e-06
6.40069e-06
8.27847e-05
-4.62322e-06
5.01017e-06
8.37376e-05
-5.48035e-07
2.72032e-06
8.50722e-05
3.04903e-06
-2.59789e-07
8.63172e-05
5.48691e-06
-3.24494e-06
8.72369e-05
5.95697e-06
-5.53732e-06
8.7844e-05
4.65118e-06
-6.74056e-06
8.82495e-05
2.71088e-06
-6.78125e-06
8.85085e-05
1.39495e-06
-5.89938e-06
8.86986e-05
9.0063e-07
-4.55997e-06
8.89568e-05
5.58892e-07
-3.21031e-06
8.93584e-05
2.97163e-08
-2.12102e-06
8.99353e-05
-7.38616e-07
-1.46288e-06
9.06629e-05
-1.45282e-06
-1.26427e-06
9.14331e-05
-1.98867e-06
-1.27977e-06
9.20882e-05
-2.22884e-06
-1.22693e-06
9.26152e-05
-2.05481e-06
-1.22603e-06
9.31605e-05
-1.62215e-06
-1.54649e-06
9.37431e-05
-1.28825e-06
-1.93298e-06
9.41964e-05
-1.02497e-06
-2.0582e-06
9.44758e-05
-5.63354e-07
-2.15063e-06
9.47706e-05
-2.56112e-08
-2.53877e-06
9.52267e-05
1.85735e-07
-2.93234e-06
9.58322e-05
8.39101e-09
-2.91669e-06
9.66545e-05
-2.30975e-07
-2.89932e-06
9.79693e-05
-6.36593e-07
-3.47146e-06
9.98457e-05
-1.68515e-06
-4.10383e-06
-3.34037e-06
-3.71868e-06
0.00012077
-6.32804e-06
-2.83248e-06
0.000121991
-8.0169e-06
-9.81e-07
0.000121816
-8.10424e-06
8.91101e-07
0.000120748
-5.99583e-06
4.47061e-07
0.000120099
-3.08477e-06
-2.82602e-06
0.000120253
-2.08043e-06
-5.81746e-06
0.000120025
-3.51271e-06
-5.47788e-06
0.000118149
-5.05506e-06
-2.95273e-06
0.000114877
-4.24548e-06
-2.17473e-06
0.000112048
-1.05265e-06
-5.62247e-06
0.000111151
2.18513e-06
-1.1194e-05
0.000112465
3.32523e-06
-1.51534e-05
0.000115604
2.35039e-06
-1.60128e-05
0.000120026
6.36992e-07
-1.47434e-05
0.000124493
-8.71814e-07
-1.20659e-05
0.000126783
-1.95666e-06
-7.6011e-06
0.000125057
-3.38601e-06
-1.28494e-06
0.000119712
-5.74582e-06
5.3919e-06
0.000112687
-9.0704e-06
9.84722e-06
0.000105915
-1.20024e-05
1.09055e-05
0.000100469
-1.33847e-05
9.67665e-06
9.68033e-05
-1.28102e-05
8.10191e-06
9.49677e-05
-1.06199e-05
7.06164e-06
9.47776e-05
-7.53109e-06
6.23259e-06
9.58784e-05
-3.88298e-06
4.79828e-06
9.7695e-05
4.87692e-07
2.24039e-06
9.95251e-05
4.93558e-06
-1.33306e-06
0.000100902
7.72367e-06
-4.98184e-06
0.000101704
8.04516e-06
-7.65153e-06
0.000102056
6.53717e-06
-8.55428e-06
0.000102137
4.59647e-06
-7.64263e-06
0.000102167
2.93967e-06
-5.67577e-06
0.0001024
1.36597e-06
-3.56219e-06
0.000102955
-1.40394e-07
-1.8793e-06
0.000103856
-1.66841e-06
-8.53706e-07
0.00010503
-2.89728e-06
-4.92855e-07
0.000106324
-3.71272e-06
-4.82952e-07
0.00010753
-4.12895e-06
-3.94716e-07
0.000108545
-4.12415e-06
-2.62156e-07
0.000109466
-3.81956e-06
-4.24862e-07
0.000110374
-3.53555e-06
-7.71075e-07
0.000111157
-3.26419e-06
-9.0983e-07
0.000111752
-2.70886e-06
-9.58725e-07
0.000112353
-1.9139e-06
-1.40544e-06
0.000113114
-1.32646e-06
-2.07429e-06
0.000113923
-1.2805e-06
-2.18555e-06
0.000114664
-1.54719e-06
-1.79617e-06
0.000115581
-1.99921e-06
-1.90401e-06
0.000116975
-2.9592e-06
-2.73e-06
-4.41373e-06
-3.40137e-06
0.000136456
-7.48245e-06
-1.95437e-06
0.000137842
-9.37601e-06
-1.00442e-06
0.000138486
-1.01578e-05
7.36716e-07
0.000138243
-8.87205e-06
1.20679e-06
0.000137967
-6.11331e-06
-1.1986e-06
0.000138428
-4.54032e-06
-4.67239e-06
0.000138981
-5.4007e-06
-5.34586e-06
0.000138135
-6.93103e-06
-2.60401e-06
0.00013527
-6.5255e-06
-2.11067e-07
0.000131738
-3.34968e-06
-2.29269e-06
0.000129367
7.27377e-07
-8.35974e-06
0.000128913
3.04528e-06
-1.4227e-05
0.000130275
2.69362e-06
-1.68596e-05
0.000133577
5.2382e-07
-1.68659e-05
0.000139166
-2.48843e-06
-1.59451e-05
0.000146072
-4.95543e-06
-1.42446e-05
0.000150476
-5.41707e-06
-1.00064e-05
0.000148278
-4.20791e-06
-2.59004e-06
0.000139446
-4.21274e-06
6.17346e-06
0.000127911
-6.47201e-06
1.1877e-05
0.000117699
-9.51582e-06
1.31111e-05
0.000110724
-1.07793e-05
1.12425e-05
0.00010697
-9.88373e-06
8.65084e-06
0.000105842
-8.20758e-06
6.82216e-06
0.00010673
-6.21483e-06
5.67416e-06
0.000108811
-2.69101e-06
4.15528e-06
0.000111103
2.6215e-06
1.36313e-06
0.000112959
7.89839e-06
-2.74585e-06
0.000114103
1.08315e-05
-6.65967e-06
0.000114565
1.10327e-05
-8.90337e-06
0.000114534
9.35529e-06
-8.66192e-06
0.000114381
6.71143e-06
-6.53921e-06
0.000114546
3.53144e-06
-3.81903e-06
0.000115241
5.75634e-07
-1.53152e-06
0.000116498
-2.07093e-06
-8.4721e-08
0.000118177
-3.90391e-06
2.77796e-07
0.000120056
-5.1131e-06
2.35805e-07
0.000121872
-5.82391e-06
3.05849e-07
0.000123461
-6.08705e-06
5.47641e-07
0.000124851
-6.03519e-06
5.49757e-07
0.000126105
-5.84604e-06
2.58995e-07
0.000127115
-5.62621e-06
1.63822e-07
0.000127838
-5.1926e-06
3.25319e-07
0.000128568
-4.42364e-06
7.33749e-08
0.000129611
-3.5756e-06
-7.72253e-07
0.000130843
-3.11191e-06
-1.36351e-06
0.000131924
-3.20183e-06
-1.08496e-06
0.000132841
-3.71625e-06
-7.04241e-07
0.000133826
-4.6555e-06
-1.01412e-06
-5.83086e-06
-1.72748e-06
0.000151557
-8.38663e-06
-8.15065e-07
0.000152288
-1.01771e-05
-2.27655e-07
0.000152852
-1.16066e-05
1.31959e-06
0.000152991
-1.11183e-05
1.94398e-06
0.000152944
-8.83184e-06
-6.78782e-08
0.000153384
-6.88735e-06
-3.78779e-06
0.000154252
-7.27208e-06
-5.33149e-06
0.000154473
-8.83179e-06
-2.86071e-06
0.000153023
-9.10458e-06
7.76812e-07
0.000150452
-6.63174e-06
5.35145e-07
0.000148313
-2.39e-06
-4.88411e-06
0.000147477
1.29979e-06
-1.19492e-05
0.000147672
2.9291e-06
-1.61128e-05
0.000148628
2.26728e-06
-1.66527e-05
0.000151153
-9.38107e-07
-1.5939e-05
0.00015715
-6.18766e-06
-1.5916e-05
0.000166287
-1.00321e-05
-1.55719e-05
0.000172729
-8.32229e-06
-1.1389e-05
0.000169576
-3.0531e-06
-2.31288e-06
0.000156884
-4.16857e-07
8.26698e-06
0.000141042
-3.01986e-06
1.5074e-05
0.000128202
-7.03207e-06
1.6406e-05
0.000120508
-8.25199e-06
1.36721e-05
0.000117192
-7.50601e-06
9.8141e-06
0.000117056
-6.90865e-06
7.10284e-06
0.000118955
-5.2413e-06
5.55748e-06
0.000121533
-5.31375e-07
3.69029e-06
0.000123804
6.3517e-06
1.07594e-07
0.000125368
1.22186e-05
-4.35841e-06
0.000126166
1.50707e-05
-7.75501e-06
0.000126322
1.46895e-05
-8.47014e-06
0.000126237
1.16868e-05
-6.6654e-06
0.000126484
7.13179e-06
-3.73445e-06
0.000127363
2.57407e-06
-9.9484e-07
0.000128983
-1.23931e-06
5.33798e-07
0.000131193
-3.86849e-06
1.02574e-06
0.000133732
-5.53728e-06
8.19467e-07
0.000136237
-6.56539e-06
6.75953e-07
0.000138447
-7.21671e-06
9.18485e-07
0.000140381
-7.59552e-06
1.07866e-06
0.000142108
-7.61956e-06
8.29064e-07
0.000143446
-7.37906e-06
6.50764e-07
0.000144238
-7.02744e-06
9.14683e-07
0.000144797
-6.48651e-06
9.94001e-07
0.000145664
-5.61667e-06
2.7721e-07
0.000146914
-4.8307e-06
-5.60773e-07
0.000148177
-4.69216e-06
-5.75914e-07
0.000149244
-5.31286e-06
-8.3288e-08
0.000150153
-6.24974e-06
-9.0231e-08
-7.17685e-06
-5.21421e-07
0.000167583
-8.3695e-06
-6.37069e-07
0.000167353
-9.82966e-06
-1.13474e-07
0.000167101
-1.20065e-05
1.64122e-06
0.000167097
-1.26259e-05
2.70273e-06
0.000167282
-1.09778e-05
9.41129e-07
0.000167665
-8.63419e-06
-3.06968e-06
0.000168224
-8.57463e-06
-5.40661e-06
0.000168495
-1.03442e-05
-3.37139e-06
0.000167775
-1.10483e-05
8.75548e-07
0.00016612
-9.12382e-06
2.25058e-06
0.000164852
-5.794e-06
-1.90614e-06
0.000165196
-2.53491e-06
-9.66529e-06
0.000166685
1.89334e-07
-1.56323e-05
0.000167847
2.5267e-06
-1.66482e-05
0.000168098
2.34978e-06
-1.44634e-05
0.000169456
-2.63038e-06
-1.33438e-05
0.00017581
-1.06975e-05
-1.50616e-05
0.000186667
-1.38902e-05
-1.63825e-05
0.000193245
-7.30622e-06
-1.19016e-05
0.000187311
2.23322e-06
-1.11681e-06
0.000170849
4.93756e-06
1.07588e-05
0.000152509
2.48387e-07
1.77247e-05
0.000138893
-3.91717e-06
1.81582e-05
0.000131405
-4.9496e-06
1.43025e-05
0.000128772
-5.62651e-06
9.96758e-06
0.000129451
-6.08446e-06
7.26999e-06
0.000131783
-3.25761e-06
5.5997e-06
0.000134347
3.80632e-06
2.81354e-06
0.000136458
1.20147e-05
-1.60923e-06
0.000137964
1.78291e-05
-5.78459e-06
0.000138883
1.94281e-05
-7.46355e-06
0.000139471
1.68521e-05
-6.29111e-06
0.0001402
1.16305e-05
-3.57909e-06
0.00014132
5.92987e-06
-7.20844e-07
0.000143074
1.36629e-06
9.18062e-07
0.000145471
-1.91026e-06
1.5191e-06
0.000148374
-3.9337e-06
1.12146e-06
0.000151401
-5.20243e-06
6.56092e-07
0.000154182
-6.28347e-06
7.62265e-07
0.000156681
-7.37649e-06
1.03597e-06
0.000159013
-8.04389e-06
8.43186e-07
0.000160974
-8.05444e-06
4.69899e-07
0.000162203
-7.75086e-06
5.44171e-07
0.000162846
-7.32466e-06
6.91635e-07
0.00016351
-6.46965e-06
9.94643e-08
0.000164454
-5.34383e-06
-7.9763e-07
0.000165421
-4.85246e-06
-9.95673e-07
0.000166247
-5.5636e-06
-4.92144e-07
0.000166982
-6.82717e-06
-1.57889e-07
-7.66666e-06
-3.42268e-07
0.000185932
-6.92872e-06
-1.40827e-06
0.000185125
-7.71348e-06
-1.1143e-06
0.000183603
-1.01532e-05
6.30935e-07
0.000182547
-1.23995e-05
2.45349e-06
0.000182784
-1.20713e-05
1.5782e-06
0.000183723
-9.70639e-06
-2.18061e-06
0.000184319
-8.78899e-06
-5.36867e-06
0.000183998
-1.08088e-05
-4.41705e-06
0.00018293
-1.26563e-05
-1.76445e-07
0.000181392
-1.09032e-05
2.74274e-06
0.000179969
-7.11323e-06
3.71408e-07
0.000180406
-4.89016e-06
-6.78678e-06
0.000183751
-4.40709e-06
-1.48054e-05
0.000188086
-2.24139e-06
-1.83358e-05
0.000190235
1.33893e-06
-1.5631e-05
0.000189393
1.53441e-06
-1.10636e-05
0.000189604
-5.50678e-06
-1.06428e-05
0.000196528
-1.39794e-05
-1.48738e-05
0.00020797
-1.2756e-05
-1.71509e-05
0.000212334
-6.96222e-07
-1.10131e-05
0.000202304
9.18648e-06
2.13304e-06
0.000183019
9.11833e-06
1.4219e-05
0.000164199
4.25043e-06
1.9461e-05
0.000151398
1.26247e-06
1.77495e-05
0.000144843
-9.36298e-07
1.30105e-05
0.000142909
-3.6255e-06
9.13303e-06
0.000143902
-3.84535e-06
7.1597e-06
0.000146267
1.43644e-06
5.08793e-06
0.000148972
1.05399e-05
1.09833e-06
0.000151626
1.87318e-05
-3.55482e-06
0.000153999
2.23169e-05
-6.18654e-06
0.000155988
2.06343e-05
-5.96434e-06
0.000157753
1.55822e-05
-4.0055e-06
0.000159358
9.89914e-06
-1.6499e-06
0.000161068
5.41115e-06
1.50541e-07
0.000163122
2.3702e-06
7.57476e-07
0.000165678
4.98932e-07
3.61594e-07
0.000168551
-7.52477e-07
-1.89641e-07
0.000171356
-2.21599e-06
-7.33616e-11
0.000173983
-4.17267e-06
5.71387e-07
0.000176587
-5.90507e-06
6.39234e-07
0.000179059
-6.71601e-06
1.82773e-07
0.000180951
-6.87484e-06
-7.46978e-08
0.000182177
-6.81163e-06
-1.70912e-07
0.000183235
-6.12779e-06
-8.96677e-07
0.000184388
-4.57801e-06
-2.11542e-06
0.000185267
-3.25118e-06
-2.7101e-06
0.000185604
-3.40324e-06
-2.3729e-06
0.000185716
-4.89527e-06
-1.65243e-06
-6.32799e-06
-1.27474e-06
0.000206298
-3.55496e-06
-2.91002e-06
0.000205989
-4.11804e-06
-2.65462e-06
0.000204361
-6.08433e-06
-1.37575e-06
0.000201873
-9.33066e-06
7.35434e-07
0.000200703
-1.12081e-05
1.10509e-06
0.000201738
-9.97799e-06
-1.42344e-06
0.000203451
-8.18212e-06
-4.71511e-06
0.000203535
-9.41813e-06
-5.22936e-06
0.000201733
-1.2672e-05
-2.23092e-06
0.000199602
-1.3052e-05
1.23524e-06
0.000197953
-8.59577e-06
1.09765e-06
0.000197064
-4.12397e-06
-3.77114e-06
0.000198888
-4.2283e-06
-1.17792e-05
0.000204635
-6.76426e-06
-1.8048e-05
0.000211415
-6.1131e-06
-1.83034e-05
0.000214461
-2.12175e-06
-1.30004e-05
0.000212757
-8.30255e-07
-8.433e-06
0.000212219
-6.06649e-06
-1.02339e-05
0.000219538
-1.15881e-05
-1.55377e-05
0.000230236
-6.82333e-06
-1.56735e-05
0.000230905
5.9237e-06
-6.49645e-06
0.000216731
1.37346e-05
7.53562e-06
0.000195934
1.31662e-05
1.77934e-05
0.000178416
1.03226e-05
1.99624e-05
0.000167507
7.53064e-06
1.60803e-05
0.000162059
3.50428e-06
1.12039e-05
0.000160362
-2.38043e-09
8.55933e-06
0.00016132
1.45448e-06
7.02055e-06
0.000164073
8.99886e-06
3.76348e-06
0.000167886
1.80535e-05
-1.04806e-06
0.000171959
2.30365e-05
-4.62535e-06
0.00017562
2.22727e-05
-5.62874e-06
0.000178656
1.80792e-05
-5.00187e-06
0.000180986
1.35612e-05
-3.87175e-06
0.000182832
1.04061e-05
-2.81351e-06
0.000184565
8.49665e-06
-2.29353e-06
0.000186596
7.29707e-06
-2.50323e-06
0.000188957
6.25644e-06
-2.74361e-06
0.000191319
4.52148e-06
-2.10392e-06
0.000193506
1.74268e-06
-7.36099e-07
0.000195724
-1.09756e-06
1.89679e-07
0.000198026
-2.99537e-06
3.16886e-07
0.000200029
-3.98298e-06
1.12961e-07
0.00020155
-4.71982e-06
-1.82171e-07
0.000203072
-4.77126e-06
-1.19263e-06
0.000204974
-3.39637e-06
-2.88114e-06
0.000206707
-1.25062e-06
-4.20494e-06
0.00020742
-5.07726e-08
-4.56046e-06
0.000207026
-7.62468e-07
-4.00115e-06
-2.48433e-06
-3.21724e-06
0.00022878
1.49695e-06
-4.62927e-06
0.000228395
9.9195e-07
-4.38968e-06
0.000228059
-9.15637e-07
-3.35237e-06
0.000226518
-4.51229e-06
-1.48379e-06
0.000224338
-7.98893e-06
-5.31e-07
0.000223399
-8.61247e-06
-1.99491e-06
0.000224514
-7.05132e-06
-4.48088e-06
0.000225778
-7.0254e-06
-5.3191e-06
0.000224863
-1.0154e-05
-3.51903e-06
0.000222033
-1.29727e-05
-8.38266e-07
0.000219471
-1.10105e-05
-8.43162e-08
0.000218328
-5.33711e-06
-2.88441e-06
0.000218905
-1.6828e-06
-8.80747e-06
0.000222096
-3.83041e-06
-1.4732e-05
0.000228114
-8.36802e-06
-1.71597e-05
0.000234124
-8.84126e-06
-1.48806e-05
0.000236411
-4.41232e-06
-1.02519e-05
0.000235212
-1.41801e-06
-7.96459e-06
0.000236508
-4.28227e-06
-1.0493e-05
0.000244992
-6.97977e-06
-1.37975e-05
0.000253375
-1.11388e-06
-1.11122e-05
0.000248894
1.03595e-05
-6.29775e-07
0.000231415
1.71096e-05
1.23993e-05
0.000212189
1.70301e-05
2.01833e-05
0.000198977
1.43985e-05
1.99047e-05
0.0001916
1.04415e-05
1.52066e-05
0.00018747
5.48172e-06
1.1021e-05
0.000185564
3.08989e-06
8.49681e-06
0.000186341
6.39119e-06
5.43374e-06
0.000189686
1.30549e-05
9.0882e-07
0.000194308
1.78798e-05
-3.40099e-06
0.000198614
1.8215e-05
-5.79059e-06
0.000201899
1.61287e-05
-6.84339e-06
0.000204133
1.46972e-05
-7.22526e-06
0.000205689
1.48517e-05
-7.10485e-06
0.000207028
1.53203e-05
-6.715e-06
0.000208713
1.52839e-05
-6.48825e-06
0.000210891
1.43918e-05
-6.24262e-06
0.00021318
1.22269e-05
-5.20765e-06
0.00021522
8.53099e-06
-3.19354e-06
0.000217107
4.43733e-06
-1.04826e-06
0.000219029
1.37401e-06
3.94248e-07
0.000220728
-4.64725e-07
1.21106e-06
0.00022198
-1.86801e-06
1.34622e-06
0.000223243
-2.73208e-06
4.04258e-07
0.000225208
-2.22892e-06
-1.4307e-06
0.00022774
-2.90066e-07
-3.39385e-06
0.000229874
1.90073e-06
-4.72191e-06
0.000230568
2.6841e-06
-5.11447e-06
2.14138e-06
-4.85677e-06
0.000254784
4.57364e-06
-5.06965e-06
0.000254089
5.60895e-06
-5.84281e-06
0.000253666
4.90538e-06
-5.53845e-06
0.000253201
1.30455e-06
-3.6596e-06
0.000252407
-3.57358e-06
-2.10482e-06
0.000251551
-6.11733e-06
-3.10022e-06
0.000251308
-5.37644e-06
-5.62783e-06
0.000251219
-4.32427e-06
-6.65828e-06
0.0002501
-6.12926e-06
-4.79987e-06
0.000247564
-9.83644e-06
-1.84654e-06
0.000244806
-1.11465e-05
-8.61975e-07
0.000243159
-7.4117e-06
-3.55166e-06
0.000243046
-1.46508e-06
-8.73996e-06
0.000244477
3.87971e-07
-1.31243e-05
0.000247753
-3.99613e-06
-1.4305e-05
0.00025248
-9.10942e-06
-1.26856e-05
0.000256483
-8.00978e-06
-1.04004e-05
0.000258108
-2.16817e-06
-9.25161e-06
0.00025906
2.49229e-07
-9.63519e-06
0.000263376
-3.12035e-06
-1.03941e-05
0.000271513
-4.17482e-06
-9.26908e-06
0.000275648
3.51484e-06
-3.99331e-06
0.000268032
1.42472e-05
4.86337e-06
0.000251996
1.98916e-05
1.33035e-05
0.000237519
1.83783e-05
1.78858e-05
0.000229894
1.23253e-05
1.84827e-05
0.000227543
5.09629e-06
1.69901e-05
0.00022731
1.99943e-07
1.47096e-05
0.000228134
-9.12556e-08
1.11594e-05
0.000230134
2.96982e-06
5.98057e-06
0.000232468
6.22655e-06
9.18999e-07
0.000233658
7.65131e-06
-3.16013e-06
0.000233308
8.41567e-06
-6.40617e-06
0.000232082
1.08813e-05
-9.22935e-06
0.000230874
1.51883e-05
-1.11837e-05
0.000230341
1.91063e-05
-1.16618e-05
0.000230984
2.11634e-05
-1.09572e-05
0.000232861
2.10586e-05
-9.59867e-06
0.000235425
1.85756e-05
-7.56117e-06
0.000237952
1.40579e-05
-4.7994e-06
0.000240128
8.74933e-06
-1.8337e-06
0.000242029
4.33836e-06
6.87014e-07
0.000243605
1.46131e-06
2.56157e-06
0.000244664
-4.76503e-07
3.64957e-06
0.000245495