/*--------------------------------*- C++ -*----------------------------------*\
| =========                 |                                                 |
| \\      /  F ield         | OpenFOAM: The Open Source CFD Toolbox           |
|  \\    /   O peration     | Version:  2.3.0                                 |
|   \\  /    A nd           | Web:      www.OpenFOAM.org                      |
|    \\/     M anipulation  |                                                 |
\*---------------------------------------------------------------------------*/
FoamFile
{
    version     2.0;
    format      ascii;
    class       surfaceScalarField;
    location    "400";
    object      phi_0;
}
// * * * * * * * * * * * * * * * * * * * * * * * * * * * * * * * * * * * * * //

dimensions      [0 3 -1 0 0 0 0];

internalField   nonuniform List<scalar> 
263700
(
2.92594e-06
-1.04075e-07
-1.93804e-08
2.90468e-06
-1.4873e-07
-1.49228e-07
2.9008e-06
-1.15275e-07
-3.5776e-07
2.93033e-06
-1.70558e-08
-6.02411e-07
2.9715e-06
7.05112e-08
-7.06993e-07
2.97335e-06
4.01228e-08
-5.44566e-07
2.89569e-06
-8.59735e-08
-2.46439e-07
2.80438e-06
-1.7097e-07
-1.69659e-07
2.80641e-06
-1.16787e-07
-4.2676e-07
2.96311e-06
1.42304e-08
-7.71951e-07
3.21049e-06
1.2379e-07
-8.755e-07
3.4433e-06
1.80343e-07
-6.87258e-07
3.57079e-06
2.17949e-07
-3.32073e-07
3.62189e-06
2.33658e-07
4.83959e-08
3.58538e-06
2.76384e-07
3.23553e-07
3.49314e-06
2.21473e-07
5.44586e-07
3.38883e-06
4.38387e-08
7.10438e-07
3.33251e-06
-2.35379e-07
8.06308e-07
3.34687e-06
-4.68411e-07
7.87765e-07
3.41117e-06
-5.59073e-07
6.76057e-07
3.46007e-06
-4.82208e-07
5.31052e-07
3.44705e-06
-2.83884e-07
4.05926e-07
3.36389e-06
-5.75326e-08
2.97734e-07
3.22612e-06
1.47916e-07
1.80684e-07
3.07367e-06
3.0527e-07
3.48187e-08
2.95465e-06
3.30769e-07
-7.23666e-08
2.86507e-06
3.12822e-07
-1.9163e-07
2.82888e-06
2.29852e-07
-2.97753e-07
2.87599e-06
9.39271e-08
-4.03029e-07
2.99355e-06
-1.27006e-08
-4.92939e-07
3.11738e-06
-2.56748e-08
-5.32478e-07
3.1923e-06
3.02338e-08
-5.01185e-07
3.21019e-06
8.84904e-08
-4.20004e-07
3.18779e-06
1.23169e-07
-3.39872e-07
3.15442e-06
1.23124e-07
-2.98602e-07
3.13564e-06
9.84355e-08
-2.89911e-07
3.13666e-06
6.29034e-08
-2.91495e-07
3.14351e-06
5.50616e-08
-3.06984e-07
3.14874e-06
7.91234e-08
-3.37356e-07
3.15937e-06
9.28849e-08
-3.47629e-07
3.17338e-06
7.27091e-08
-3.04411e-07
3.17996e-06
4.15192e-08
-2.27643e-07
3.17508e-06
2.92844e-08
-1.59545e-07
3.16877e-06
2.74019e-08
-1.06797e-07
3.1637e-06
2.38516e-08
-4.80002e-08
3.13881e-06
3.07242e-08
1.68014e-08
3.09203e-06
5.68814e-08
4.78885e-08
3.04744e-06
4.94932e-08
5.17007e-08
3.01278e-06
4.9021e-09
4.92204e-08
-4.40599e-08
4.93682e-08
9.97625e-06
-3.34911e-07
-3.18397e-07
9.92356e-06
-3.83941e-07
-6.91374e-07
9.91884e-06
-2.49201e-07
-1.1298e-06
9.97137e-06
1.20352e-09
-1.49857e-06
1.00244e-05
1.71154e-07
-1.5345e-06
9.99523e-06
4.66161e-08
-1.16915e-06
9.86441e-06
-2.79441e-07
-7.24577e-07
9.78068e-06
-4.47422e-07
-7.35036e-07
9.91267e-06
-2.48197e-07
-1.22147e-06
1.03008e-05
8.88327e-08
-1.64701e-06
1.07912e-05
3.36749e-07
-1.56539e-06
1.12024e-05
4.12525e-07
-9.82687e-07
1.14252e-05
4.25239e-07
-1.50098e-07
1.15084e-05
4.33157e-07
5.32175e-07
1.14593e-05
3.93929e-07
1.0898e-06
1.13343e-05
1.26528e-07
1.48619e-06
1.11902e-05
-3.97938e-07
1.73395e-06
1.10962e-05
-1.06116e-06
1.79053e-06
1.1066e-05
-1.51509e-06
1.63088e-06
1.10611e-05
-1.56179e-06
1.31127e-06
1.1005e-05
-1.19544e-06
9.37637e-07
1.08572e-05
-5.65887e-07
5.89414e-07
1.0632e-05
8.20883e-08
2.63799e-07
1.03689e-05
6.08761e-07
-5.05434e-08
1.01355e-05
8.94586e-07
-3.10976e-07
9.99095e-06
9.11103e-07
-5.95675e-07
9.92388e-06
8.09925e-07
-8.26497e-07
9.95038e-06
5.46958e-07
-1.00439e-06
1.00809e-05
2.06152e-07
-1.14217e-06
1.02731e-05
-1.93461e-08
-1.22543e-06
1.04407e-05
-9.86375e-09
-1.22023e-06
1.05265e-05
1.52184e-07
-1.12157e-06
1.05343e-05
3.0277e-07
-9.76421e-07
1.04949e-05
3.77562e-07
-8.60852e-07
1.04517e-05
3.65931e-07
-8.17379e-07
1.04346e-05
3.00402e-07
-8.26977e-07
1.04428e-05
2.24431e-07
-8.57373e-07
1.04586e-05
2.23511e-07
-9.10443e-07
1.04809e-05
2.93738e-07
-9.75551e-07
1.05165e-05
3.26207e-07
-9.81065e-07
1.05514e-05
2.6905e-07
-8.76509e-07
1.05661e-05
1.84821e-07
-7.05993e-07
1.05595e-05
1.41774e-07
-5.38233e-07
1.05479e-05
1.20128e-07
-3.85479e-07
1.05287e-05
9.60441e-08
-2.30082e-07
1.04737e-05
8.42614e-08
-8.02614e-08
1.03836e-05
8.54265e-08
1.92834e-08
1.02886e-05
4.39983e-08
3.93166e-08
1.01916e-05
-6.2742e-08
1.93856e-08
-1.96266e-07
-8.11524e-08
1.90965e-05
-6.67633e-07
-5.70002e-07
1.89738e-05
-6.79417e-07
-1.14038e-06
1.89353e-05
-3.7724e-07
-1.78627e-06
1.89871e-05
7.10784e-08
-2.27593e-06
1.90429e-05
3.15144e-07
-2.27532e-06
1.89817e-05
5.05851e-08
-1.75433e-06
1.87797e-05
-5.23059e-07
-1.16224e-06
1.86429e-05
-7.69787e-07
-1.18221e-06
1.88038e-05
-3.84778e-07
-1.7889e-06
1.93129e-05
1.91602e-07
-2.27568e-06
1.9966e-05
5.7805e-07
-2.0812e-06
2.05266e-05
6.15825e-07
-1.22104e-06
2.08682e-05
5.26059e-07
-5.60026e-08
2.10483e-05
4.48837e-07
8.95888e-07
2.10661e-05
2.31652e-07
1.67379e-06
2.09611e-05
-3.35636e-07
2.21661e-06
2.07725e-05
-1.27351e-06
2.53787e-06
2.05764e-05
-2.34701e-06
2.58148e-06
2.041e-05
-2.99334e-06
2.32376e-06
2.02622e-05
-2.90761e-06
1.83355e-06
2.00772e-05
-2.12369e-06
1.24966e-06
1.98306e-05
-9.25217e-07
6.81581e-07
1.95457e-05
2.84634e-07
1.22777e-07
1.92598e-05
1.08993e-06
-3.0098e-07
1.90376e-05
1.51081e-06
-7.36632e-07
1.8933e-05
1.56726e-06
-1.15236e-06
1.89122e-05
1.37471e-06
-1.46178e-06
1.89747e-05
9.20107e-07
-1.67829e-06
1.91246e-05
3.67214e-07
-1.8228e-06
1.93224e-05
2.73185e-08
-1.89062e-06
1.94888e-05
7.31641e-08
-1.85172e-06
1.95735e-05
3.52451e-07
-1.70503e-06
1.95837e-05
5.91218e-07
-1.50845e-06
1.95495e-05
6.89524e-07
-1.35594e-06
1.95148e-05
6.49472e-07
-1.30177e-06
1.95081e-05
5.33909e-07
-1.32679e-06
1.95258e-05
4.18009e-07
-1.3889e-06
1.95549e-05
4.37482e-07
-1.49159e-06
1.96043e-05
5.80155e-07
-1.6226e-06
1.96798e-05
6.60301e-07
-1.68212e-06
1.97531e-05
5.88446e-07
-1.59075e-06
1.97948e-05
4.61545e-07
-1.38726e-06
1.98084e-05
3.81128e-07
-1.14859e-06
1.98198e-05
3.1626e-07
-9.0017e-07
1.98299e-05
2.36433e-07
-6.42945e-07
1.98035e-05
1.79508e-07
-4.07607e-07
1.97294e-05
1.35895e-07
-2.38391e-07
1.96257e-05
1.77758e-08
-1.41498e-07
1.9483e-05
-1.91982e-07
-1.15121e-07
-4.54728e-07
-2.15358e-07
3.06998e-05
-1.13528e-06
-6.23806e-07
3.04206e-05
-1.09645e-06
-1.37721e-06
3.02984e-05
-5.44944e-07
-2.34126e-06
3.03477e-05
2.05951e-07
-3.12234e-06
3.04237e-05
5.6269e-07
-3.18747e-06
3.03139e-05
1.18936e-07
-2.47865e-06
2.99501e-05
-7.63381e-07
-1.6264e-06
2.96095e-05
-1.11047e-06
-1.57469e-06
2.96492e-05
-5.02293e-07
-2.35447e-06
3.01851e-05
3.55128e-07
-3.03843e-06
3.09719e-05
8.93744e-07
-2.84851e-06
3.16966e-05
8.62295e-07
-1.76209e-06
3.21967e-05
5.74516e-07
-2.43842e-07
3.25297e-05
3.29948e-07
1.05619e-06
3.26674e-05
-1.39092e-07
2.12374e-06
3.25985e-05
-1.07239e-06
2.89212e-06
3.232e-05
-2.49156e-06
3.37268e-06
3.19289e-05
-4.05543e-06
3.49229e-06
3.15297e-05
-4.96288e-06
3.21795e-06
3.11817e-05
-4.76165e-06
2.61428e-06
3.08668e-05
-3.50997e-06
1.8431e-06
3.0568e-05
-1.63622e-06
1.04839e-06
3.02899e-05
2.37571e-07
2.5051e-07
3.0048e-05
1.41206e-06
-3.88591e-07
2.98937e-05
2.05826e-06
-1.01565e-06
2.98692e-05
2.20545e-06
-1.58924e-06
2.99133e-05
1.94819e-06
-2.01147e-06
3.00084e-05
1.31641e-06
-2.30084e-06
3.01599e-05
5.51152e-07
-2.47863e-06
3.03426e-05
9.08386e-08
-2.54767e-06
3.04937e-05
1.73135e-07
-2.48427e-06
3.05753e-05
5.68946e-07
-2.28792e-06
3.05964e-05
8.82797e-07
-2.02319e-06
3.05807e-05
9.83087e-07
-1.80718e-06
3.05676e-05
8.9303e-07
-1.71642e-06
3.05797e-05
7.11439e-07
-1.73313e-06
3.06085e-05
5.41706e-07
-1.80246e-06
3.06469e-05
5.76575e-07
-1.94093e-06
3.07229e-05
8.09213e-07
-2.15841e-06
3.08496e-05
9.76242e-07
-2.33654e-06
3.09859e-05
9.43219e-07
-2.36004e-06
3.10907e-05
8.34659e-07
-2.24681e-06
3.11716e-05
7.64977e-07
-2.04799e-06
3.12662e-05
6.66954e-07
-1.76313e-06
3.13831e-05
4.99707e-07
-1.40466e-06
3.14804e-05
3.54697e-07
-1.05217e-06
3.1526e-05
2.33068e-07
-7.74288e-07
3.15056e-05
6.88666e-10
-5.44833e-07
3.13613e-05
-3.78927e-07
-3.25284e-07
-8.21825e-07
-2.7083e-07
4.51852e-05
-1.79344e-06
-4.31621e-07
4.45777e-05
-1.7424e-06
-1.26396e-06
4.42363e-05
-8.99457e-07
-2.6578e-06
4.42622e-05
2.9729e-07
-4.02074e-06
4.44279e-05
8.94735e-07
-4.4216e-06
4.43313e-05
2.8337e-07
-3.58153e-06
4.37684e-05
-9.64886e-07
-2.34722e-06
4.30773e-05
-1.44546e-06
-2.11489e-06
4.28169e-05
-5.44708e-07
-3.15272e-06
4.3257e-05
6.8788e-07
-4.24358e-06
4.41307e-05
1.4183e-06
-4.19457e-06
4.5007e-05
1.30791e-06
-2.86816e-06
4.5651e-05
6.47536e-07
-8.60821e-07
4.61291e-05
1.84011e-07
9.96605e-07
4.64062e-05
-6.23354e-07
2.54345e-06
4.63925e-05
-1.99245e-06
3.70364e-06
4.59836e-05
-3.96008e-06
4.46458e-06
4.52662e-05
-6.12751e-06
4.73871e-06
4.4446e-05
-7.4586e-06
4.51445e-06
4.373e-05
-7.29542e-06
3.86555e-06
4.31936e-05
-5.6492e-06
2.95706e-06
4.28355e-05
-3.05442e-06
1.93961e-06
4.26155e-05
-3.37649e-07
8.6343e-07
4.25012e-05
1.46069e-06
-1.6773e-07
4.25047e-05
2.44585e-06
-1.06026e-06
4.2647e-05
2.77845e-06
-1.87177e-06
4.28326e-05
2.4936e-06
-2.46264e-06
4.30198e-05
1.6923e-06
-2.86963e-06
4.32101e-05
7.01249e-07
-3.11052e-06
4.33927e-05
9.32811e-08
-3.18425e-06
4.35275e-05
1.91854e-07
-3.08356e-06
4.36018e-05
6.96745e-07
-2.82351e-06
4.36368e-05
1.07559e-06
-2.47289e-06
4.36522e-05
1.16208e-06
-2.17109e-06
4.36806e-05
1.00484e-06
-2.02547e-06
4.37329e-05
7.44105e-07
-2.01543e-06
4.37839e-05
4.97948e-07
-2.05384e-06
4.38255e-05
5.15965e-07
-2.17009e-06
4.39104e-05
8.23995e-07
-2.42931e-06
4.40715e-05
1.08865e-06
-2.71118e-06
4.42613e-05
1.1213e-06
-2.86907e-06
4.44344e-05
1.09235e-06
-2.94218e-06
4.46138e-05
1.1388e-06
-2.9741e-06
4.48541e-05
1.11151e-06
-2.86023e-06
4.51721e-05
8.99376e-07
-2.52626e-06
4.55266e-05
6.50158e-07
-2.09731e-06
4.58688e-05
4.19035e-07
-1.72312e-06
4.61348e-05
2.30842e-08
-1.33503e-06
4.61569e-05
-6.14349e-07
-7.85812e-07
-1.31889e-06
-3.2491e-07
6.28259e-05
-2.72024e-06
-1.21133e-07
6.17216e-05
-2.76367e-06
-5.8721e-07
6.08413e-05
-1.66521e-06
-2.28372e-06
6.06284e-05
6.88983e-08
-4.50881e-06
6.08966e-05
1.07715e-06
-5.73223e-06
6.09633e-05
4.10372e-07
-5.08862e-06
6.03077e-05
-1.2093e-06
-3.45964e-06
5.9223e-05
-1.88572e-06
-2.8704e-06
5.85194e-05
-6.32974e-07
-4.19703e-06
5.87556e-05
1.18188e-06
-6.08293e-06
5.97174e-05
2.26219e-06
-6.58601e-06
6.08068e-05
2.13956e-06
-5.17977e-06
6.15927e-05
1.14086e-06
-2.5595e-06
6.21055e-05
2.0069e-07
2.45854e-07
6.2393e-05
-1.01015e-06
2.65755e-06
6.23545e-05
-2.92194e-06
4.61765e-06
6.17631e-05
-5.49713e-06
5.94541e-06
6.06032e-05
-8.3421e-06
6.47647e-06
5.91176e-05
-1.02707e-05
6.29575e-06
5.77134e-05
-1.04385e-05
5.62106e-06
5.66777e-05
-8.6916e-06
4.66249e-06
5.61068e-05
-5.52495e-06
3.51735e-06
5.59198e-05
-1.89049e-06
2.15474e-06
5.60038e-05
9.8496e-07
5.76666e-07
5.62752e-05
2.58555e-06
-8.05836e-07
5.66957e-05
3.38219e-06
-2.07329e-06
5.71292e-05
3.19678e-06
-2.96277e-06
5.7509e-05
2.22496e-06
-3.53541e-06
5.78296e-05
9.35993e-07
-3.83896e-06
5.80848e-05
7.33818e-08
-3.87089e-06
5.82492e-05
8.31604e-08
-3.65127e-06
5.83424e-05
6.25821e-07
-3.25273e-06
5.84156e-05
1.0288e-06
-2.76805e-06
5.84947e-05
1.07554e-06
-2.34688e-06
5.86108e-05
8.33298e-07
-2.13184e-06
5.87621e-05
4.9474e-07
-2.10676e-06
5.88935e-05
1.70174e-07
-2.11869e-06
5.89735e-05
1.35395e-07
-2.16758e-06
5.90763e-05
4.83574e-07
-2.40352e-06
5.92632e-05
8.47042e-07
-2.73343e-06
5.94734e-05
9.42841e-07
-2.92498e-06
5.96461e-05
9.74197e-07
-3.05521e-06
5.98447e-05
1.16444e-06
-3.3135e-06
6.01805e-05
1.31992e-06
-3.56793e-06
6.06964e-05
1.19647e-06
-3.5339e-06
6.13681e-05
9.27974e-07
-3.25446e-06
6.217e-05
6.38128e-07
-2.99067e-06
6.3024e-05
9.48429e-08
-2.65714e-06
6.36166e-05
-8.67822e-07
-1.85009e-06
-1.96727e-06
-7.33262e-07
8.30201e-05
-3.93854e-06
-3.94084e-07
8.17978e-05
-4.27876e-06
3.00075e-07
8.02139e-05
-3.11462e-06
-8.57004e-07
7.9311e-05
-8.29373e-07
-3.74918e-06
7.93664e-05
7.54818e-07
-6.26824e-06
7.95772e-05
2.3927e-07
-6.45224e-06
7.89437e-05
-1.6643e-06
-4.6685e-06
7.74771e-05
-2.635e-06
-3.51936e-06
7.6189e-05
-1.19084e-06
-4.88392e-06
7.60927e-05
1.3224e-06
-7.90398e-06
7.72214e-05
3.04098e-06
-9.84275e-06
7.88682e-05
3.16484e-06
-9.21829e-06
8.02346e-05
2.13336e-06
-6.49975e-06
8.09412e-05
7.58109e-07
-2.73974e-06
8.10137e-05
-8.11921e-07
1.05462e-06
8.05157e-05
-3.18838e-06
4.50204e-06
7.9365e-05
-6.42673e-06
7.17514e-06
7.75535e-05
-9.99029e-06
8.44702e-06
7.52339e-05
-1.26208e-05
8.39519e-06
7.286e-05
-1.34557e-05
7.60607e-06
7.0945e-05
-1.21634e-05
6.63211e-06
6.9818e-05
-9.00263e-06
5.59955e-06
6.94771e-05
-4.80527e-06
4.25082e-06
6.97389e-05
-8.39266e-07
2.36801e-06
7.03771e-05
2.09822e-06
1.19734e-07
7.11816e-05
3.93664e-06
-1.99222e-06
7.19318e-05
4.41771e-06
-3.62402e-06
7.25422e-05
3.52257e-06
-4.6196e-06
7.30291e-05
1.88094e-06
-5.03783e-06
7.34086e-05
5.29347e-07
-4.93404e-06
7.36616e-05
1.55379e-07
-4.40912e-06
7.38295e-05
4.72034e-07
-3.66648e-06
7.40033e-05
7.13193e-07
-2.8965e-06
7.42262e-05
6.03961e-07
-2.26026e-06
7.4529e-05
1.98689e-07
-1.91286e-06
7.49008e-05
-2.437e-07
-1.86115e-06
7.52548e-05
-6.32104e-07
-1.88296e-06
7.55059e-05
-7.40288e-07
-1.86751e-06
7.57242e-05
-4.15533e-07
-2.03095e-06
7.60202e-05
4.10391e-08
-2.41399e-06
7.63296e-05
2.57068e-07
-2.6637e-06
7.65251e-05
3.70403e-07
-2.71117e-06
7.66632e-05
6.63973e-07
-2.90693e-06
7.69341e-05
9.79849e-07
-3.3356e-06
7.74426e-05
9.91223e-07
-3.61699e-06
7.82013e-05
7.78017e-07
-3.6081e-06
7.9273e-05
5.33617e-07
-3.68129e-06
8.07165e-05
-9.6649e-09
-3.87639e-06
8.2226e-05
-1.18185e-06
-3.46029e-06
-2.70806e-06
-2.05289e-06
0.000103227
-5.28669e-06
-1.75329e-06
0.000103004
-6.25138e-06
2.71823e-07
0.000101525
-5.34343e-06
6.43187e-07
0.000100033
-2.75822e-06
-1.68101e-06
9.9553e-05
-4.66915e-07
-5.21831e-06
9.96559e-05
-5.05985e-07
-6.76072e-06
9.89979e-05
-2.42835e-06
-5.31552e-06
9.70515e-05
-3.66761e-06
-3.50776e-06
9.47894e-05
-2.31728e-06
-4.3543e-06
9.37887e-05
6.56472e-07
-8.20084e-06
9.46695e-05
3.00509e-06
-1.20973e-05
9.6983e-05
3.45904e-06
-1.3451e-05
9.97882e-05
2.55489e-06
-1.2026e-05
0.000102087
1.34006e-06
-8.76775e-06
0.000102938
-9.85323e-08
-4.22583e-06
0.000101966
-2.20254e-06
8.4672e-07
9.94251e-05
-5.36584e-06
5.77896e-06
9.59906e-05
-9.46147e-06
9.08687e-06
9.22035e-05
-1.28226e-05
1.00156e-05
8.85263e-05
-1.45685e-05
9.24244e-06
8.5453e-05
-1.43217e-05
8.06178e-06
8.34389e-05
-1.209e-05
7.15031e-06
8.26258e-05
-8.35696e-06
6.24527e-06
8.28795e-05
-4.12365e-06
4.75594e-06
8.38957e-05
-1.07187e-07
2.34745e-06
8.52282e-05
3.40952e-06
-6.77707e-07
8.64225e-05
5.63897e-06
-3.60779e-06
8.7285e-05
5.83658e-06
-5.76694e-06
8.78594e-05
4.35573e-06
-6.80622e-06
8.82485e-05
2.45946e-06
-6.69165e-06
8.8498e-05
1.29793e-06
-5.70913e-06
8.86936e-05
8.76191e-07
-4.34011e-06
8.89732e-05
5.12335e-07
-3.02071e-06
8.94032e-05
-6.48504e-08
-1.99404e-06
9.00075e-05
-8.57897e-07
-1.40049e-06
9.07501e-05
-1.54371e-06
-1.25033e-06
9.15159e-05
-2.03842e-06
-1.27462e-06
9.21547e-05
-2.22628e-06
-1.21962e-06
9.26742e-05
-2.01057e-06
-1.24123e-06
9.32222e-05
-1.5734e-06
-1.58239e-06
9.3799e-05
-1.25684e-06
-1.95438e-06
9.42354e-05
-9.84612e-07
-2.06491e-06
9.45088e-05
-5.01626e-07
-2.18021e-06
9.4816e-05
2.6344e-08
-2.58809e-06
9.5289e-05
1.95771e-07
-2.95326e-06
9.59139e-05
5.81098e-09
-2.91974e-06
9.67809e-05
-2.39841e-07
-2.95839e-06
9.81649e-05
-7.05038e-07
-3.57647e-06
0.000100082
-1.8466e-06
-4.13809e-06
-3.54462e-06
-3.5897e-06
0.000120968
-6.54178e-06
-2.67824e-06
0.000122043
-8.09925e-06
-7.52791e-07
0.00012171
-7.93626e-06
9.68004e-07
0.000120616
-5.6367e-06
1.72104e-07
0.000120051
-2.84899e-06
-3.23062e-06
0.000120218
-2.16142e-06
-5.92595e-06
0.000119833
-3.71877e-06
-5.2173e-06
0.000117768
-5.05891e-06
-2.75018e-06
0.000114496
-3.89587e-06
-2.45247e-06
0.000111896
-5.94577e-07
-6.31163e-06
0.000111304
2.42905e-06
-1.18206e-05
0.000112885
3.22776e-06
-1.53692e-05
0.000116227
2.0819e-06
-1.58783e-05
0.000120725
3.91997e-07
-1.44118e-05
0.000124988
-1.00083e-06
-1.15463e-05
0.000126763
-1.99517e-06
-6.81973e-06
0.000124453
-3.61255e-06
-3.82041e-07
0.000118804
-6.10635e-06
6.10837e-06
0.000111806
-9.48748e-06
1.01094e-05
0.000105236
-1.21958e-05
1.07451e-05
0.000100028
-1.32776e-05
9.3728e-06
9.658e-05
-1.24978e-05
7.87116e-06
9.49329e-05
-1.02283e-05
6.92715e-06
9.48991e-05
-7.13957e-06
6.09115e-06
9.61033e-05
-3.41935e-06
4.52978e-06
9.79346e-05
1.05406e-06
1.81288e-06
9.97009e-05
5.43633e-06
-1.85737e-06
0.000100982
7.90351e-06
-5.43577e-06
0.000101707
7.88715e-06
-7.89029e-06
0.000102016
6.23881e-06
-8.50532e-06
0.000102082
4.33524e-06
-7.37233e-06
0.000102135
2.71542e-06
-5.32806e-06
0.000102417
1.14534e-06
-3.25842e-06
0.000103029
-3.65607e-07
-1.67659e-06
0.000103981
-1.88466e-06
-7.51418e-07
0.000105184
-3.04202e-06
-4.67731e-07
0.00010648
-3.79809e-06
-4.69633e-07
0.000107666
-4.15313e-06
-3.71378e-07
0.00010866
-4.10424e-06
-2.52388e-07
0.000109572
-3.78458e-06
-4.436e-07
0.000110469
-3.51061e-06
-7.85453e-07
0.000111233
-3.221e-06
-9.09942e-07
0.000111823
-2.6228e-06
-9.91186e-07
0.000112439
-1.81235e-06
-1.4865e-06
0.000113215
-1.27634e-06
-2.12784e-06
0.00011402
-1.2777e-06
-2.16794e-06
0.000114767
-1.56667e-06
-1.7931e-06
0.000115727
-2.06516e-06
-1.9934e-06
0.000117181
-3.10205e-06
-2.85475e-06
-4.61494e-06
-3.42753e-06
0.000136645
-7.70074e-06
-1.92227e-06
0.000137982
-9.51626e-06
-8.4548e-07
0.000138507
-1.00952e-05
8.75793e-07
0.000138193
-8.56953e-06
1.06172e-06
0.000137967
-5.83265e-06
-1.60343e-06
0.000138484
-4.54282e-06
-4.909e-06
0.000138933
-5.58873e-06
-5.1182e-06
0.000137854
-6.98552e-06
-2.23221e-06
0.00013484
-6.2222e-06
-2.57384e-07
0.000131408
-2.82413e-06
-2.95901e-06
0.000129285
1.14155e-06
-9.21545e-06
0.000129088
3.08711e-06
-1.47262e-05
0.000130698
2.43447e-06
-1.69185e-05
0.000134304
1.13697e-07
-1.6716e-05
0.00014017
-2.85575e-06
-1.57361e-05
0.000146966
-5.01524e-06
-1.38177e-05
0.000150579
-5.18877e-06
-9.13743e-06
0.000147334
-4.08295e-06
-1.37976e-06
0.000137929
-4.37309e-06
7.1542e-06
0.000126487
-6.85075e-06
1.22468e-05
0.00011674
-9.68187e-06
1.29046e-05
0.00011024
-1.05908e-05
1.07841e-05
0.00010683
-9.56866e-06
8.2621e-06
0.000105953
-7.99953e-06
6.6137e-06
0.000107006
-5.94304e-06
5.52016e-06
0.000109129
-2.1163e-06
3.87173e-06
0.000111357
3.40335e-06
8.48277e-07
0.000113099
8.48267e-06
-3.34205e-06
0.000114134
1.10029e-05
-7.1146e-06
0.000114513
1.08567e-05
-9.00394e-06
0.000114445
8.99484e-06
-8.40487e-06
0.000114324
6.24935e-06
-6.10574e-06
0.000114569
3.05137e-06
-3.40549e-06
0.000115356
1.87051e-07
-1.24818e-06
0.000116693
-2.39336e-06
1.9008e-08
0.000118416
-4.11864e-06
3.0249e-07
0.000120303
-5.25014e-06
2.4686e-07
0.000122096
-5.89181e-06
3.41205e-07
0.000123652
-6.10169e-06
5.81356e-07
0.000125015
-6.02832e-06
5.48943e-07
0.000126237
-5.83594e-06
2.55463e-07
0.000127209
-5.60317e-06
1.88935e-07
0.000127919
-5.12098e-06
3.26334e-07
0.000128677
-4.31841e-06
1.15477e-08
0.000129759
-3.47548e-06
-8.7813e-07
0.000130994
-3.07495e-06
-1.38749e-06
0.000132055
-3.22572e-06
-1.05039e-06
0.000132966
-3.78776e-06
-7.25525e-07
0.000133965
-4.78947e-06
-1.10207e-06
-5.99624e-06
-1.81709e-06
0.000151645
-8.58219e-06
-8.09291e-07
0.000152384
-1.03655e-05
-8.37076e-08
0.000152911
-1.16374e-05
1.45492e-06
0.000152989
-1.09106e-05
1.83404e-06
0.00015295
-8.53026e-06
-4.73183e-07
0.000153457
-6.82168e-06
-4.12632e-06
0.00015431
-7.4509e-06
-5.18411e-06
0.000154381
-8.95245e-06
-2.39959e-06
0.000152758
-8.92833e-06
9.85121e-07
0.000150188
-6.13747e-06
2.93547e-08
0.000148205
-1.85169e-06
-5.82501e-06
0.000147534
1.59638e-06
-1.26856e-05
0.000147833
2.92706e-06
-1.63081e-05
0.000148936
1.93789e-06
-1.65173e-05
0.000151849
-1.56316e-06
-1.5842e-05
0.000158413
-6.79699e-06
-1.5906e-05
0.000167574
-9.99885e-06
-1.52695e-05
0.000172926
-7.5785e-06
-1.03962e-05
0.00016824
-2.4489e-06
-7.96577e-07
0.000154747
-4.56059e-07
9.49046e-06
0.000139152
-3.55767e-06
1.55564e-05
0.00012707
-7.22737e-06
1.6137e-05
0.000120049
-8.01114e-06
1.3028e-05
0.000117176
-7.33209e-06
9.2528e-06
0.000117322
-6.84574e-06
6.80698e-06
0.000119333
-4.85098e-06
5.36107e-06
0.000121866
3.56069e-07
3.30716e-06
0.00012402
7.33348e-06
-5.23304e-07
0.000125463
1.28343e-05
-4.97193e-06
0.000126158
1.51842e-05
-8.03448e-06
0.000126255
1.43556e-05
-8.3033e-06
0.000126196
1.1024e-05
-6.22167e-06
0.000126538
6.4043e-06
-3.25851e-06
0.000127527
1.93766e-06
-6.34406e-07
0.000129255
-1.70475e-06
6.74241e-07
0.000131533
-4.17274e-06
1.04595e-06
0.000134092
-5.73062e-06
8.01004e-07
0.000136569
-6.68953e-06
7.00091e-07
0.000138735
-7.29883e-06
9.67898e-07
0.000140628
-7.63966e-06
1.09389e-06
0.000142305
-7.62652e-06
8.21658e-07
0.000143571
-7.36075e-06
6.79881e-07
0.000144307
-6.98341e-06
9.52538e-07
0.000144875
-6.39155e-06
9.48486e-07
0.000145796
-5.48733e-06
1.63616e-07
0.000147075
-4.75987e-06
-6.22518e-07
0.000148329
-4.72248e-06
-5.49309e-07
0.000149373
-5.41057e-06
-5.91995e-08
0.000150257
-6.37327e-06
-1.43984e-07
-7.30488e-06
-5.89757e-07
0.000167545
-8.5156e-06
-6.29949e-07
0.000167303
-1.01245e-05
9.49773e-08
0.000167091
-1.22002e-05
1.84576e-06
0.000167112
-1.25182e-05
2.64871e-06
0.000167296
-1.06671e-05
5.23194e-07
0.00016769
-8.4797e-06
-3.50724e-06
0.000168241
-8.74759e-06
-5.35974e-06
0.000168449
-1.0538e-05
-2.86849e-06
0.000167621
-1.09428e-05
1.27178e-06
0.000165962
-8.74937e-06
1.98822e-06
0.000164871
-5.35289e-06
-2.82437e-06
0.000165426
-2.20377e-06
-1.06358e-05
0.000166946
4.91162e-07
-1.60096e-05
0.000167975
2.64054e-06
-1.63916e-05
0.000168224
1.94407e-06
-1.41276e-05
0.000170098
-3.61816e-06
-1.34047e-05
0.000177294
-1.14624e-05
-1.53753e-05
0.000188137
-1.3357e-05
-1.6196e-05
0.000193217
-5.84664e-06
-1.07205e-05
0.000185456
3.01576e-06
7.13921e-07
0.000168286
4.54846e-06
1.21261e-05
0.000150454
-4.41433e-07
1.81549e-05
0.000137763
-4.0145e-06
1.77248e-05
0.000131021
-4.84789e-06
1.35419e-05
0.000128868
-5.71615e-06
9.39667e-06
0.000129801
-5.97705e-06
6.99088e-06
0.000132173
-2.47198e-06
5.31287e-06
0.000134656
5.04283e-06
2.25034e-06
0.000136669
1.30944e-05
-2.30586e-06
0.000138087
1.83295e-05
-6.22714e-06
0.000138943
1.92377e-05
-7.42956e-06
0.000139537
1.61194e-05
-5.90898e-06
0.000140324
1.07221e-05
-3.10908e-06
0.000141525
5.12319e-06
-3.46204e-07
0.000143382
7.88129e-07
1.08633e-06
0.000145866
-2.28603e-06
1.53118e-06
0.000148814
-4.17327e-06
1.06575e-06
0.000151832
-5.38683e-06
6.50779e-07
0.000154573
-6.46557e-06
8.147e-07
0.000157035
-7.52938e-06
1.06302e-06
0.00015932
-8.11935e-06
8.21316e-07
0.000161192
-8.05753e-06
4.66149e-07
0.000162318
-7.71615e-06
5.72848e-07
0.00016292
-7.22747e-06
6.5951e-07
0.000163606
-6.32018e-06
5.59848e-09
0.00016457
-5.21775e-06
-8.79603e-07
0.00016553
-4.87833e-06
-9.73648e-07
0.000166342
-5.72401e-06
-4.33456e-07
0.000167057
-6.96852e-06
-1.62349e-07
-7.77098e-06
-3.87335e-07
0.000185838
-7.01958e-06
-1.39999e-06
0.000184909
-7.981e-06
-9.64089e-07
0.000183389
-1.0541e-05
9.29275e-07
0.000182483
-1.25503e-05
2.5497e-06
0.000182853
-1.18425e-05
1.24277e-06
0.000183787
-9.43852e-06
-2.67968e-06
0.000184265
-8.90281e-06
-5.48214e-06
0.000183842
-1.11359e-05
-3.97938e-06
0.000182736
-1.26652e-05
3.73825e-07
0.000181206
-1.04804e-05
2.76703e-06
0.000179936
-6.76764e-06
-2.65855e-07
0.000180764
-4.84172e-06
-7.90383e-06
0.000184387
-4.31469e-06
-1.55724e-05
0.000188562
-1.84179e-06
-1.82208e-05
0.000190268
1.60536e-06
-1.4905e-05
0.00018929
9.72263e-07
-1.0653e-05
0.000190217
-6.69858e-06
-1.10556e-05
0.000198152
-1.43669e-05
-1.55072e-05
0.000209294
-1.14065e-05
-1.68602e-05
0.000211752
1.09593e-06
-9.47909e-06
0.000199949
9.58615e-06
4.09936e-06
0.000180308
8.40219e-06
1.54559e-05
0.000162259
3.77553e-06
1.95625e-05
0.000150419
1.15675e-06
1.70819e-05
0.000144563
-1.18627e-06
1.22572e-05
0.000143059
-3.86679e-06
8.70436e-06
0.000144253
-3.40743e-06
6.92296e-06
0.000146662
2.66605e-06
4.63009e-06
0.000149356
1.19486e-05
3.7359e-07
0.00015198
1.95971e-05
-4.13407e-06
0.000154305
2.2331e-05
-6.3195e-06
0.000156263
1.99958e-05
-5.72046e-06
0.000158005
1.466e-05
-3.6326e-06
0.000159609
9.09745e-06
-1.32142e-06
0.000161361
4.88133e-06
2.93613e-07
0.000163478
2.02788e-06
7.65601e-07
0.000166096
2.68401e-07
2.99241e-07
0.000168986
-9.80281e-07
-1.87882e-07
0.000171775
-2.51109e-06
8.54501e-08
0.000174387
-4.48388e-06
6.40479e-07
0.000176977
-6.12722e-06
6.23471e-07
0.000179388
-6.81326e-06
1.36847e-07
0.000181181
-6.89928e-06
-9.72321e-08
0.000182342
-6.74943e-06
-2.30954e-07
0.000183393
-5.93612e-06
-1.0588e-06
0.000184526
-4.33787e-06
-2.2598e-06
0.000185338
-3.17059e-06
-2.73414e-06
0.000185616
-3.55051e-06
-2.29432e-06
0.000185721
-5.13827e-06
-1.56483e-06
-6.49308e-06
-1.26283e-06
0.000206247
-3.68564e-06
-2.87182e-06
0.000205806
-4.332e-06
-2.52986e-06
0.000203996
-6.52783e-06
-1.08912e-06
0.00020155
-9.77217e-06
9.72369e-07
0.000200661
-1.12448e-05
9.73063e-07
0.000201908
-9.71506e-06
-1.83998e-06
0.000203518
-8.1396e-06
-4.96562e-06
0.000203321
-9.80032e-06
-4.99273e-06
0.000201384
-1.29801e-05
-1.70054e-06
0.000199314
-1.27375e-05
1.51905e-06
0.000197763
-7.95713e-06
7.24406e-07
0.000197152
-3.92711e-06
-4.7199e-06
0.000199517
-4.60908e-06
-1.27792e-05
0.000205618
-6.99745e-06
-1.84013e-05
0.000212089
-5.76168e-06
-1.77265e-05
0.000214416
-1.72173e-06
-1.21102e-05
0.000212483
-1.15099e-06
-8.27084e-06
0.000212841
-6.8772e-06
-1.09744e-05
0.000221162
-1.14393e-05
-1.60838e-05
0.000231165
-5.21426e-06
-1.49293e-05
0.000229676
7.35684e-06
-4.61037e-06
0.000214014
1.38316e-05
9.40128e-06
0.000193342
1.27221e-05
1.86132e-05
0.00017679
1.00659e-05
1.96306e-05
0.000166745
7.20814e-06
1.52513e-05
0.000161842
2.97724e-06
1.05981e-05
0.000160489
-9.56739e-08
8.30576e-06
0.000161688
2.31916e-06
6.67522e-06
0.000164611
1.04558e-05
3.06395e-06
0.000168507
1.91597e-05
-1.74806e-06
0.000172558
2.3243e-05
-4.95128e-06
0.000176133
2.17525e-05
-5.5977e-06
0.000179063
1.73144e-05
-4.83124e-06
0.000181304
1.29736e-05
-3.70564e-06
0.000183114
1.00683e-05
-2.70977e-06
0.000184869
8.2935e-06
-2.28728e-06
0.000186949
7.12394e-06
-2.53098e-06
0.000189332
6.00629e-06
-2.68456e-06
0.000191681
4.12357e-06
-1.91687e-06
0.000193857
1.26681e-06
-5.30386e-07
0.000196084
-1.49184e-06
2.79262e-07
0.000198366
-3.24131e-06
3.12528e-07
0.000200306
-4.12774e-06
6.20094e-08
0.000201791
-4.77759e-06
-2.8997e-07
0.000203347
-4.62911e-06
-1.43079e-06
0.000205263
-3.07767e-06
-3.13797e-06
0.000206895
-9.77537e-07
-4.36066e-06
0.00020743
-1.61909e-08
-4.5622e-06
0.000206929
-9.8039e-07
-3.89859e-06
-2.7193e-06
-3.13716e-06
0.00022866
1.39652e-06
-4.60766e-06
0.000228332
7.81068e-07
-4.29243e-06
0.000227883
-1.38253e-06
-3.10148e-06
0.000226168
-5.12413e-06
-1.21602e-06
0.000224022
-8.32258e-06
-5.15317e-07
0.000223348
-8.51104e-06
-2.25715e-06
0.000224634
-6.91884e-06
-4.69531e-06
0.000225731
-7.29816e-06
-5.1997e-06
0.000224503
-1.06638e-05
-3.12799e-06
0.000221576
-1.30517e-05
-5.28142e-07
0.000219157
-1.04316e-05
-1.85907e-07
0.000218258
-4.69196e-06
-3.51225e-06
0.000219177
-1.74264e-06
-9.63953e-06
0.000222823
-4.5399e-06
-1.52395e-05
0.000229038
-8.85014e-06
-1.70032e-05
0.000234666
-8.51291e-06
-1.42198e-05
0.000236358
-3.78512e-06
-9.69167e-06
0.000235173
-1.4084e-06
-8.1042e-06
0.000237436
-4.69484e-06
-1.11159e-05
0.000246551
-6.58434e-06
-1.39134e-05
0.000253642
3.52909e-07
-1.00562e-05
0.000246979
1.15157e-05
1.2364e-06
0.000228654
1.71782e-05
1.39541e-05
0.000210176
1.67033e-05
2.05774e-05
0.000198004
1.40199e-05
1.9315e-05
0.000191201
9.85276e-06
1.4439e-05
0.00018731
4.9955e-06
1.05585e-05
0.000185668
3.31151e-06
8.13524e-06
0.000186796
7.39929e-06
4.8077e-06
0.00019041
1.40694e-05
1.34904e-07
0.000195064
1.82174e-05
-3.92672e-06
0.000199224
1.79906e-05
-6.02453e-06
0.000202327
1.58044e-05
-6.93243e-06
0.000204424
1.46427e-05
-7.25217e-06
0.000205922
1.49749e-05
-7.08265e-06
0.00020728
1.53885e-05
-6.6882e-06
0.000209034
1.51965e-05
-6.45734e-06
0.000211258
1.40968e-05
-6.12657e-06
0.000213531
1.17041e-05
-4.94206e-06
0.000215536
7.87431e-06
-2.84269e-06
0.000217414
3.84571e-06
-7.48988e-07
0.000219319
9.7145e-07
5.72893e-07
0.000220963
-7.22582e-07
1.26969e-06
0.000222184
-2.03163e-06
1.24928e-06
0.00022351
-2.72548e-06
1.6013e-07
0.00022558
-1.97809e-06
-1.77667e-06
0.00022813
1.09233e-07
-3.70286e-06
0.000230108
2.16585e-06
-4.90332e-06
0.000230556
2.69949e-06
-5.15404e-06
2.03377e-06
-4.84057e-06
0.000254701
4.73476e-06
-5.23575e-06
0.000254003
5.62238e-06
-5.90362e-06
0.00025359
4.49131e-06
-5.35346e-06
0.000253077
5.66238e-07
-3.33964e-06
0.000252216
-4.15767e-06
-2.00692e-06
0.000251379
-6.22358e-06
-3.33363e-06
0.000251186
-5.21036e-06
-5.86358e-06
0.000251034
-4.41629e-06
-6.53656e-06
0.000249742
-6.63313e-06
-4.36025e-06
0.000247103
-1.02836e-05
-1.47523e-06
0.000244428
-1.09619e-05
-9.44332e-07
0.000242982
-6.66248e-06
-4.12262e-06
0.000243092
-9.60838e-07
-9.40654e-06
0.000244789
-1.94776e-08
-1.34159e-05
0.000248344
-4.9444e-06
-1.41062e-05
0.000253121
-9.48851e-06
-1.22712e-05
0.000256837
-7.38732e-06
-1.01175e-05
0.000258241
-1.45665e-06
-9.27225e-06
0.000259519
1.39263e-07
-9.83834e-06
0.00026453
-3.47843e-06
-1.04522e-05
0.000272616
-3.53797e-06
-8.78628e-06
0.000275263
4.97503e-06
-2.86543e-06
0.000266022
1.52638e-05
6.19325e-06
0.000249769
1.99305e-05
1.41837e-05
0.000236294
1.76949e-05
1.81048e-05
0.000229695
1.13167e-05
1.82755e-05
0.000227793
4.22299e-06
1.67107e-05
0.000227664
-1.18181e-07
1.43643e-05
0.00022858
3.37372e-07
1.05383e-05
0.000230658
3.60917e-06
5.18405e-06
0.000232868
6.65545e-06
1.50832e-07
0.000233764
7.84218e-06
-3.71542e-06
0.000233193
8.69953e-06
-6.8913e-06
0.000231895
1.15188e-05
-9.63248e-06
0.000230751
1.59284e-05
-1.13994e-05
0.000230374
1.96041e-05
-1.16608e-05
0.000231211
2.1286e-05
-1.07977e-05
0.000233239
2.07857e-05
-9.3174e-06
0.000235849
1.79366e-05
-7.15885e-06
0.000238334
1.32215e-05
-4.32376e-06
0.000240454
7.94182e-06
-1.38457e-06
0.000242303
3.74906e-06
1.03638e-06
0.000243809
1.08624e-06
2.78509e-06
0.000244809
-7.10329e-07
3.704e-06
0.000245665
-1.86246e-06