/*--------------------------------*- C++ -*----------------------------------*\
| =========                 |                                                 |
| \\      /  F ield         | OpenFOAM: The Open Source CFD Toolbox           |
|  \\    /   O peration     | Version:  2.3.0                                 |
|   \\  /    A nd           | Web:      www.OpenFOAM.org                      |
|    \\/     M anipulation  |                                                 |
\*---------------------------------------------------------------------------*/
FoamFile
{
    version     2.0;
    format      ascii;
    class       volScalarField;
    location    "400";
    object      pMean;
}
// * * * * * * * * * * * * * * * * * * * * * * * * * * * * * * * * * * * * * //

dimensions      [0 2 -2 0 0 0 0];

internalField   nonuniform List<scalar> 
90000
(
0.000868507
0.000868635
0.000868642
0.000868159
0.000867526
0.000866817
0.000866141
0.000865545
0.000864842
0.00086414
0.000863317
0.000862311
0.000861519
0.000860642
0.000859652
0.000859149
0.000858694
0.000858187
0.000857676
0.000857356
0.000856707
0.000856356
0.00085634
0.000856305
0.00085617
0.000855879
0.000855862
0.000856042
0.000856323
0.000856667
0.000856747
0.000857
0.000857581
0.000857934
0.000858097
0.000858404
0.000858915
0.000859581
0.000860307
0.000860664
0.000861114
0.00086197
0.00086265
0.000862895
0.000863247
0.000863963
0.000864804
0.000865603
0.000866515
0.0008678
0.0008685
0.000868615
0.000868618
0.000868135
0.0008675
0.000866788
0.000866114
0.000865522
0.000864815
0.000864112
0.000863288
0.000862274
0.000861481
0.000860609
0.00085961
0.000859126
0.000858676
0.00085817
0.000857663
0.000857339
0.000856689
0.000856344
0.000856325
0.000856285
0.000856157
0.00085585
0.000855839
0.000856012
0.000856282
0.000856636
0.00085671
0.00085695
0.000857542
0.000857901
0.000858069
0.00085838
0.000858898
0.000859579
0.000860308
0.00086065
0.000861108
0.000861947
0.000862619
0.000862865
0.000863219
0.000863934
0.000864778
0.000865586
0.000866484
0.000867788
0.000868435
0.000868576
0.000868571
0.00086808
0.000867441
0.000866739
0.000866063
0.000865469
0.00086477
0.000864073
0.000863258
0.000862255
0.000861452
0.000860587
0.000859576
0.00085909
0.000858649
0.000858141
0.000857624
0.000857299
0.000856639
0.00085627
0.000856257
0.000856226
0.000856098
0.000855805
0.000855774
0.000855952
0.000856239
0.000856605
0.000856703
0.00085692
0.000857487
0.000857841
0.000858004
0.000858316
0.000858841
0.000859524
0.000860251
0.000860591
0.000861051
0.000861872
0.000862538
0.000862797
0.000863137
0.000863841
0.000864672
0.000865502
0.000866432
0.000867713
0.000868436
0.000868562
0.000868544
0.000868028
0.000867358
0.000866666
0.000865985
0.000865374
0.000864644
0.000863951
0.000863139
0.000862114
0.000861292
0.000860449
0.000859497
0.000858981
0.000858567
0.000858086
0.000857556
0.000857215
0.000856604
0.000856267
0.000856232
0.00085615
0.000856042
0.000855723
0.000855652
0.000855815
0.00085608
0.000856447
0.000856605
0.000856815
0.000857359
0.000857727
0.000857907
0.000858214
0.000858762
0.000859471
0.000860202
0.000860576
0.000861012
0.000861821
0.000862469
0.000862733
0.000863088
0.000863766
0.000864555
0.000865375
0.000866258
0.00086757
0.000868354
0.00086856
0.000868491
0.000867902
0.000867188
0.000866501
0.000865839
0.00086522
0.000864528
0.000863843
0.000863102
0.000862119
0.000861239
0.000860412
0.000859399
0.000858809
0.0008584
0.000857927
0.000857391
0.000857019
0.000856405
0.000856091
0.000856096
0.000856003
0.000855876
0.000855605
0.000855494
0.000855683
0.000856008
0.000856473
0.000856676
0.00085685
0.000857293
0.000857625
0.000857815
0.000858136
0.000858692
0.000859359
0.000860062
0.000860445
0.000860865
0.000861681
0.00086235
0.000862624
0.000862946
0.000863611
0.000864358
0.000865239
0.000866091
0.000867342
0.000868074
0.0008685
0.000868414
0.000867767
0.000866962
0.000866256
0.000865583
0.000864905
0.00086415
0.000863451
0.000862636
0.000861655
0.000860757
0.00085997
0.000859083
0.000858463
0.000858059
0.000857674
0.000857185
0.000856867
0.000856308
0.000856054
0.000856065
0.000855891
0.000855723
0.000855414
0.000855282
0.000855457
0.00085572
0.000856166
0.000856529
0.000856748
0.000857139
0.000857448
0.000857609
0.000857909
0.00085851
0.000859215
0.000859898
0.000860331
0.000860796
0.000861638
0.000862302
0.000862577
0.000862875
0.00086354
0.000864287
0.000865051
0.000865833
0.000866901
0.000867927
0.000868226
0.000867924
0.000867194
0.000866379
0.000865678
0.000865079
0.000864425
0.000863717
0.000863053
0.000862315
0.000861409
0.000860483
0.000859672
0.000858826
0.000858169
0.00085776
0.000857372
0.000856821
0.000856415
0.000855937
0.000855738
0.000855831
0.000855636
0.000855395
0.000855099
0.000854855
0.000855144
0.000855497
0.000855943
0.000856328
0.000856594
0.00085697
0.000857304
0.000857465
0.00085773
0.000858292
0.000858946
0.000859517
0.000859975
0.000860506
0.000861291
0.000861809
0.000861992
0.000862317
0.000863134
0.000863886
0.000864716
0.000865418
0.000866587
0.000867101
0.000867558
0.000867328
0.000866652
0.000865838
0.000865119
0.000864555
0.00086382
0.000862993
0.000862298
0.000861563
0.00086083
0.000859975
0.000859258
0.000858567
0.000857744
0.000857194
0.000856866
0.000856476
0.000856017
0.000855509
0.000855303
0.000855502
0.000855362
0.000855082
0.000854849
0.000854619
0.000854752
0.000854882
0.000855141
0.000855561
0.000855931
0.000856195
0.000856354
0.000856458
0.000856759
0.000857395
0.000858157
0.0008589
0.000859553
0.000860046
0.000860739
0.000861196
0.000861502
0.000861937
0.000862812
0.000863532
0.000864178
0.00086468
0.000865588
0.000866298
0.000866888
0.000866649
0.000866013
0.000865129
0.000864368
0.000863642
0.000862924
0.000862271
0.000861781
0.000861153
0.00086037
0.000859466
0.000858822
0.000858406
0.000857597
0.000857014
0.00085662
0.000856041
0.000855351
0.000854786
0.000854705
0.000854866
0.000854547
0.000854058
0.000853838
0.000853764
0.000854081
0.000854232
0.000854505
0.00085492
0.000855208
0.000855318
0.000855369
0.000855529
0.000855815
0.000856347
0.000857081
0.000857816
0.000858542
0.000859131
0.000859849
0.000860444
0.000861019
0.00086161
0.000862314
0.000862646
0.000862995
0.00086346
0.000864547
0.000865337
0.000866079
0.000865765
0.000865059
0.000864233
0.000863497
0.00086279
0.000862157
0.000861504
0.00086097
0.000860238
0.000859505
0.000858686
0.000857994
0.000857562
0.00085678
0.000856227
0.000855805
0.000855371
0.000854758
0.000854291
0.000854152
0.000854169
0.000853727
0.000853261
0.000853155
0.000853261
0.000853587
0.00085368
0.00085382
0.000854031
0.000854301
0.000854548
0.000854795
0.000855083
0.000855253
0.000855423
0.000855829
0.000856303
0.000856955
0.000857668
0.000858475
0.000859112
0.00085984
0.000860541
0.000861198
0.000861487
0.000861824
0.000862326
0.000863359
0.000864734
0.000865677
0.000865479
0.000864616
0.00086352
0.000862591
0.000861915
0.000861375
0.000860721
0.000860179
0.000859465
0.000858839
0.000858045
0.00085729
0.000856724
0.000856051
0.000855548
0.000855175
0.000854825
0.000854242
0.000853767
0.00085352
0.0008535
0.000853301
0.000853066
0.000853149
0.000853092
0.000853093
0.000852899
0.00085295
0.000853085
0.000853409
0.00085375
0.000853986
0.000854228
0.000854597
0.000854831
0.000855093
0.000855373
0.000855991
0.000856541
0.000857247
0.00085796
0.000858805
0.000859414
0.000859932
0.000860481
0.000861146
0.000861709
0.000862666
0.00086447
0.000865245
0.000865054
0.000864296
0.000863159
0.000862114
0.000861226
0.000860695
0.000860159
0.000859678
0.000858968
0.000858294
0.000857484
0.000856812
0.000856544
0.000856109
0.000855563
0.000854796
0.000854094
0.000853429
0.000853131
0.000853006
0.00085307
0.000852981
0.000852727
0.000852831
0.00085288
0.000852748
0.000852533
0.000852393
0.000852278
0.000852399
0.000852756
0.000853184
0.00085368
0.000854277
0.000854797
0.000855146
0.000855363
0.000855848
0.000856302
0.000856846
0.000857482
0.000858313
0.000858929
0.000859236
0.000859706
0.00086055
0.000861383
0.000862763
0.000863333
0.000864124
0.000864161
0.000863562
0.00086269
0.000861935
0.000861251
0.000860631
0.000859859
0.000859243
0.000858649
0.000858144
0.000857496
0.000856883
0.000856316
0.000855594
0.000854863
0.000854129
0.000853463
0.000852872
0.000852558
0.000852293
0.000852157
0.000852023
0.000852031
0.000852448
0.000852657
0.000852643
0.00085226
0.000851842
0.000851638
0.000851625
0.000852019
0.000852651
0.000853261
0.000853778
0.000854189
0.000854573
0.000854891
0.000855494
0.000856011
0.000856712
0.00085743
0.000858146
0.000858755
0.000859189
0.000859721
0.000860407
0.000861306
0.000861902
0.00086197
0.000862734
0.000862942
0.000862495
0.000861416
0.000860466
0.00085981
0.00085925
0.000858617
0.000858161
0.000857725
0.000857199
0.000856529
0.000855933
0.00085565
0.00085524
0.000854703
0.000853872
0.000853124
0.000852544
0.000852059
0.000851466
0.000850988
0.000850778
0.000850878
0.000851218
0.000851274
0.000851176
0.000850931
0.000850766
0.000850676
0.000850714
0.00085115
0.0008519
0.000852659
0.000853369
0.000853942
0.000854315
0.000854578
0.000855085
0.000855585
0.000856441
0.000857362
0.000858102
0.000858319
0.000858531
0.000859019
0.000859631
0.000860071
0.000860721
0.00086104
0.000861522
0.000861681
0.000861399
0.000860841
0.000860238
0.000859585
0.000858909
0.000858278
0.000857781
0.000856993
0.000856126
0.000855176
0.00085444
0.000853985
0.000853423
0.000852832
0.000851963
0.000851188
0.00085069
0.000850362
0.000850133
0.000850001
0.000849937
0.000850143
0.000850485
0.000850347
0.000850278
0.000850242
0.000850286
0.00085029
0.000850376
0.000850723
0.000851184
0.000851603
0.000852222
0.000852774
0.000853137
0.000853478
0.000853927
0.000854364
0.000855199
0.000856288
0.000857176
0.000857817
0.000858355
0.000858891
0.000859265
0.000859598
0.000860306
0.000859876
0.000860143
0.000859953
0.000859533
0.000859135
0.000858694
0.000858098
0.000857526
0.000856952
0.000856282
0.000855482
0.000854804
0.000854244
0.000853731
0.00085331
0.00085269
0.000852004
0.000851107
0.000850376
0.000849748
0.000849262
0.000849022
0.000848908
0.000848558
0.00084818
0.000848179
0.000848243
0.000848394
0.000848459
0.000848605
0.000848664
0.000848764
0.000848955
0.000849295
0.000849888
0.000850666
0.000851219
0.00085155
0.000852093
0.00085267
0.000853034
0.000853671
0.000854458
0.000855071
0.000855682
0.000856477
0.000857169
0.000857709
0.000858118
0.000858782
0.000858145
0.000858709
0.000858987
0.000858991
0.00085878
0.00085816
0.000857293
0.00085658
0.000855954
0.000855224
0.000854471
0.000853813
0.000853216
0.000852499
0.000851739
0.000851049
0.000850294
0.000849601
0.000849223
0.000848554
0.000847838
0.000847339
0.000847018
0.00084666
0.000846446
0.000846762
0.000847124
0.000847452
0.000847627
0.00084765
0.000847498
0.000847297
0.000847307
0.000847371
0.000847717
0.00084842
0.000848734
0.000849292
0.000849915
0.000850171
0.000850461
0.000851304
0.000852403
0.00085339
0.000854231
0.000854951
0.000855572
0.000856114
0.000856647
0.00085724
0.000856553
0.000857649
0.000858086
0.000857968
0.000857405
0.000856378
0.000855345
0.000854612
0.00085403
0.000853545
0.000852939
0.000852212
0.000851265
0.000850307
0.000849701
0.000849434
0.000849047
0.000848748
0.000848767
0.000848326
0.000847731
0.000846964
0.000846353
0.000846059
0.000845991
0.000846165
0.000846387
0.000846743
0.000846803
0.000846419
0.000845777
0.000845595
0.000845937
0.000846223
0.000846723
0.000847081
0.00084675
0.000847185
0.000847836
0.000848365
0.000849093
0.000850218
0.000851303
0.000852182
0.000852786
0.000853267
0.000853682
0.000854205
0.000854909
0.000855473
0.000856681
0.000857829
0.000858175
0.000857754
0.000856916
0.000856053
0.000855548
0.000855146
0.000854688
0.000854238
0.000853418
0.000852439
0.000851446
0.000850759
0.000850283
0.000850008
0.000849453
0.000849221
0.000849349
0.000849029
0.000848433
0.0008476
0.000847155
0.000847199
0.000847365
0.000847277
0.000847261
0.000847449
0.000847488
0.000847268
0.000847127
0.000847306
0.000847714
0.00084773
0.000847948
0.000847791
0.000847646
0.000848258
0.000848794
0.000849314
0.000850451
0.000851375
0.000851772
0.000852682
0.000853658
0.000854147
0.000854548
0.00085526
0.000856167
0.000856415
0.000860817
0.000862716
0.00086246
0.000861224
0.000859596
0.000858313
0.000857559
0.000856967
0.000856634
0.000856106
0.000854889
0.000853669
0.000852759
0.000851808
0.000851124
0.000850991
0.000850659
0.000850812
0.000851154
0.000851
0.00085042
0.000849935
0.000849554
0.000849554
0.000849925
0.00084996
0.00085012
0.000850395
0.000849824
0.000848947
0.000848166
0.00084793
0.000847811
0.000847482
0.000847725
0.000848026
0.000848914
0.000850017
0.000850482
0.000851391
0.000852654
0.000853574
0.000854827
0.0008562
0.000857233
0.000857632
0.000857991
0.000858771
0.000859372
0.000859409
0.000852829
0.00086248
0.000862432
0.000860927
0.000859445
0.00085874
0.000858418
0.000857953
0.000857475
0.000856787
0.000855693
0.000854552
0.000853489
0.000852047
0.000850955
0.000850393
0.000850079
0.000850417
0.000850165
0.000850516
0.000849972
0.000849533
0.000849304
0.00084923
0.000849527
0.000849831
0.000849946
0.000849756
0.000849082
0.000848912
0.000848717
0.000849104
0.000848931
0.000848214
0.00084771
0.00084782
0.000849029
0.000850702
0.000851213
0.000851027
0.000851779
0.000851386
0.000853809
0.000854464
0.000855061
0.000855774
0.00085657
0.000856746
0.000857817
0.000851985
0.000857915
0.000859842
0.000860082
0.000859606
0.000858467
0.000857263
0.000856358
0.000855933
0.000855639
0.000855137
0.000854283
0.000853365
0.00085251
0.000851607
0.000850993
0.000850755
0.000850898
0.000851146
0.000850918
0.000851507
0.000851598
0.000851374
0.000850999
0.000850897
0.000851153
0.000851566
0.000851266
0.000850863
0.000850398
0.000850039
0.000849262
0.000848752
0.000848684
0.000848747
0.000848577
0.000848741
0.000849749
0.000850376
0.000851439
0.000851559
0.000852653
0.000853099
0.000854217
0.000855346
0.000855255
0.000855573
0.000855647
0.000856137
0.000856371
0.000856806
0.000859533
0.000862708
0.000863302
0.000862208
0.000860816
0.00085971
0.000858895
0.000858193
0.000857702
0.000857345
0.000856862
0.000856095
0.000855027
0.000853793
0.000852857
0.000852145
0.000851871
0.000852061
0.000851387
0.00085181
0.000851513
0.000851144
0.000851363
0.000851484
0.000851569
0.000851821
0.000851783
0.000851822
0.000851822
0.000851737
0.000851559
0.000851714
0.000851625
0.000851662
0.000851605
0.000850805
0.000851694
0.000851777
0.000853068
0.000853771
0.00085414
0.000853647
0.00085467
0.000856201
0.000857043
0.000857799
0.000858997
0.000859512
0.000860565
0.00086028
0.00086099
0.00086223
0.000862355
0.000861535
0.00086042
0.00085933
0.000858503
0.000857982
0.000857498
0.000857149
0.000856254
0.000855028
0.000854079
0.000853251
0.000852625
0.000852198
0.000852022
0.000852109
0.000851704
0.000851674
0.000851789
0.000852026
0.00085229
0.000852274
0.000852008
0.000851864
0.000851659
0.000851348
0.000851055
0.000850778
0.000850511
0.000850355
0.000850273
0.000850239
0.000850573
0.000850821
0.000851715
0.000852061
0.00085309
0.000854136
0.000854426
0.000855091
0.000856372
0.000857373
0.000857486
0.000858009
0.000858545
0.00085889
0.000858973
0.000859819
0.000860137
0.000859503
0.000858909
0.000858277
0.000857629
0.000856977
0.000856499
0.000856281
0.000856337
0.000856412
0.000856118
0.000855426
0.000854575
0.000853744
0.000852925
0.000852296
0.000851775
0.000851191
0.000850104
0.000849474
0.000849041
0.000848705
0.0008485
0.000848454
0.000848582
0.000848589
0.000848546
0.000848565
0.000848633
0.000848649
0.000848647
0.00084896
0.00084964
0.000850064
0.000850054
0.000849399
0.000849649
0.000850066
0.000850491
0.000851067
0.000851213
0.000851782
0.000852569
0.000853412
0.000854242
0.00085489
0.000855672
0.000856803
0.000857637
0.000859274
0.000854759
0.000855393
0.000855615
0.000855507
0.000855101
0.000854493
0.000853757
0.000853365
0.000853499
0.000853805
0.000853556
0.000852523
0.00085115
0.000850016
0.000849137
0.000848536
0.000848152
0.000848047
0.000848037
0.000847831
0.000847669
0.000847744
0.000847908
0.000847903
0.000847881
0.000847674
0.000847156
0.000846429
0.000845683
0.000845202
0.000845014
0.000844897
0.000845285
0.000845829
0.000846352
0.000846791
0.000847175
0.000847799
0.000848396
0.00084905
0.000849557
0.000850142
0.000851035
0.000852108
0.000853016
0.000853707
0.000854248
0.000854773
0.000854942
0.000854832
0.000856778
0.000855671
0.000854069
0.000852594
0.000851837
0.00085134
0.000851516
0.000851803
0.000852533
0.000852907
0.000852583
0.00085178
0.000850976
0.000850388
0.000849904
0.000849343
0.000848648
0.000847891
0.000847072
0.000846509
0.000846146
0.000845913
0.000846075
0.00084638
0.000846667
0.000846601
0.000846458
0.000846311
0.000846359
0.000846421
0.000846524
0.000846674
0.00084717
0.000847822
0.000848672
0.000849258
0.000849556
0.000849803
0.000850174
0.00085058
0.000851025
0.000851295
0.000851391
0.000851372
0.000851569
0.000852174
0.000852697
0.000853179
0.000854028
0.000855431
0.000853902
0.000853983
0.00085323
0.000853418
0.000852204
0.000851925
0.000851422
0.000854659
0.000856975
0.000857661
0.000856567
0.000854658
0.000852985
0.000852212
0.000851806
0.000851393
0.000850666
0.000850196
0.000849993
0.000849699
0.000849435
0.000849225
0.000849113
0.000849173
0.00084932
0.000849499
0.000849501
0.00084931
0.000848732
0.000848175
0.000847657
0.000847431
0.000847201
0.000847024
0.000846965
0.000847342
0.000847613
0.000848134
0.000848676
0.000849748
0.000850197
0.00085047
0.000850221
0.000850727
0.000851334
0.000852763
0.000853553
0.000854262
0.000854285
0.000854279
0.000854025
0.000853472
0.000852306
0.000851317
0.000850661
0.000850195
0.000849942
0.000850042
0.000850629
0.000850934
0.000851081
0.000850869
0.000850363
0.000849922
0.00084972
0.000849754
0.000849764
0.000849651
0.00084922
0.000848506
0.000847867
0.00084757
0.000847532
0.000847487
0.000847179
0.000846911
0.000846813
0.000846931
0.000847349
0.000847354
0.000847243
0.00084695
0.000846459
0.000845995
0.000846035
0.00084668
0.000847522
0.00084804
0.00084824
0.000848313
0.000848512
0.000848734
0.000848724
0.000849105
0.000849697
0.000850551
0.000851144
0.000851588
0.000851944
0.000852873
0.000850514
0.000850472
0.000850126
0.00084972
0.00084941
0.000849408
0.000849535
0.000849769
0.000850279
0.000850608
0.000850688
0.000850111
0.000849275
0.000848849
0.000848195
0.000847284
0.000846587
0.000845857
0.00084508
0.00084471
0.000844669
0.00084472
0.000844504
0.000843947
0.000843382
0.00084333
0.00084394
0.000844474
0.000844438
0.000843818
0.000843033
0.000842827
0.00084297
0.000843234
0.000843666
0.00084391
0.000844252
0.000844612
0.000844804
0.000844981
0.000845606
0.000846334
0.000846891
0.000847276
0.000847473
0.00084789
0.000848379
0.000848761
0.000849134
0.000849779
0.000871086
0.000871312
0.000871272
0.000871177
0.000870708
0.000869984
0.000869145
0.000868643
0.000868065
0.000867355
0.000866342
0.000865238
0.000864106
0.000862941
0.000862018
0.00086084
0.00086019
0.000859994
0.00085976
0.000859464
0.000859023
0.000858812
0.000858848
0.000858622
0.000858335
0.0008585
0.000858464
0.000858594
0.000858752
0.000858875
0.000859433
0.000859543
0.000859673
0.000859714
0.000859637
0.000859587
0.000859836
0.000860366
0.000861178
0.000861842
0.000862058
0.000863025
0.000864384
0.000865537
0.000866201
0.000866852
0.000867498
0.000868507
0.000869251
0.000870187
0.000870941
0.00087118
0.000871107
0.000870946
0.00087044
0.000869695
0.000868862
0.000868377
0.000867847
0.000867205
0.000866251
0.000865134
0.000863939
0.000862738
0.000861839
0.000860717
0.00086008
0.000859862
0.000859639
0.000859364
0.000858934
0.000858708
0.000858745
0.000858557
0.000858346
0.000858559
0.000858506
0.000858555
0.000858639
0.000858722
0.000859212
0.000859253
0.000859358
0.000859434
0.00085943
0.000859487
0.000859845
0.000860414
0.000861155
0.000861722
0.000861879
0.000862792
0.000864157
0.000865297
0.000865926
0.000866565
0.000867234
0.000868263
0.000869054
0.000870035
0.000870833
0.000871098
0.000871048
0.000870865
0.000870351
0.000869662
0.00086889
0.000868467
0.000867931
0.000867194
0.000866136
0.000864995
0.000863852
0.000862727
0.000861858
0.000860736
0.000860103
0.000859818
0.000859511
0.000859214
0.000858748
0.000858512
0.000858519
0.000858318
0.000858162
0.000858474
0.000858517
0.000858604
0.000858603
0.000858671
0.000859126
0.000859044
0.000859139
0.000859259
0.000859241
0.000859191
0.000859483
0.000860122
0.000860895
0.000861464
0.000861717
0.000862798
0.000864201
0.00086527
0.000865798
0.000866384
0.00086714
0.00086831
0.000869128
0.000870013
0.000870327
0.000870718
0.00087079
0.000870658
0.000870169
0.000869496
0.000868662
0.000868169
0.00086759
0.000866766
0.000865701
0.000864592
0.000863456
0.000862404
0.00086154
0.000860447
0.000859943
0.000859623
0.000859271
0.000858981
0.000858479
0.000858191
0.0008581
0.000857841
0.000857779
0.000858164
0.000858243
0.000858338
0.000858323
0.000858544
0.000859096
0.000858875
0.00085885
0.000858994
0.000858955
0.000858793
0.000859028
0.000859855
0.000860696
0.000861088
0.000861303
0.000862609
0.000864144
0.000865099
0.000865372
0.000865786
0.000866534
0.000867758
0.000868593
0.000869438
0.000869689
0.000870177
0.000870353
0.000870237
0.00086982
0.000869272
0.000868431
0.000867906
0.000867325
0.000866408
0.000865132
0.000863986
0.000862808
0.000861819
0.00086087
0.000859687
0.000859268
0.000859007
0.000858732
0.000858604
0.000858211
0.000858128
0.000857991
0.00085759
0.00085761
0.000858064
0.000858095
0.000858145
0.00085795
0.000858365
0.00085903
0.000858539
0.000858386
0.000858646
0.000858611
0.0008584
0.000858504
0.000859361
0.000860155
0.000860236
0.0008605
0.000862088
0.000863803
0.000864639
0.000864744
0.000864989
0.000865694
0.000867037
0.000868003
0.000868892
0.000869031
0.000869734
0.00086996
0.000869731
0.000869188
0.000868591
0.000867783
0.000867285
0.000866762
0.000865736
0.000864423
0.000863342
0.000862299
0.000861491
0.000860555
0.000859341
0.000858988
0.000858637
0.000858282
0.000858192
0.00085789
0.000858
0.000857844
0.00085727
0.000857358
0.000857781
0.000857755
0.000857731
0.000857448
0.000857872
0.000858638
0.000857945
0.000857636
0.000858011
0.000858187
0.000858169
0.000858278
0.000859242
0.00086
0.000859796
0.000860037
0.000861831
0.000863615
0.000864253
0.000864096
0.000864171
0.000864894
0.000866333
0.000867375
0.000868201
0.000868186
0.000869459
0.000869976
0.000869726
0.000869056
0.000868354
0.000867415
0.000866812
0.000866195
0.000865037
0.000863693
0.000862625
0.000861586
0.000860787
0.000859763
0.000858578
0.000858319
0.000857951
0.000857666
0.000857574
0.000857242
0.000857568
0.000857411
0.000856717
0.00085692
0.00085732
0.000857141
0.000857247
0.000857125
0.000857694
0.000858273
0.000857414
0.000856947
0.000857067
0.00085733
0.000857611
0.000858039
0.000859213
0.000859868
0.000859166
0.000859456
0.000861461
0.000863357
0.000863976
0.00086399
0.000864224
0.000864843
0.000865979
0.000866696
0.000867213
0.00086676
0.000868632
0.000869295
0.00086897
0.00086828
0.000867401
0.000866431
0.000865915
0.000865304
0.000864165
0.000862806
0.000861707
0.000860564
0.000859724
0.000858646
0.000857652
0.000857487
0.000857291
0.000856935
0.000856771
0.00085647
0.000856812
0.000856759
0.00085605
0.000856099
0.000856204
0.000855853
0.000856
0.000856123
0.000856595
0.000856921
0.000856303
0.000855853
0.00085592
0.00085649
0.000857092
0.000857735
0.000859054
0.000859547
0.000858727
0.000859263
0.000861134
0.000862458
0.00086283
0.000863089
0.000863862
0.000864728
0.000865662
0.000866012
0.000865734
0.000865252
0.000867369
0.000867957
0.000867611
0.000866845
0.000865926
0.000865061
0.00086454
0.00086396
0.00086288
0.000861597
0.000860626
0.000859515
0.000858655
0.000857425
0.000856477
0.000856288
0.000855965
0.000855455
0.000854963
0.000854499
0.000854837
0.000855191
0.000854977
0.000855099
0.000855078
0.000854688
0.000854823
0.00085507
0.000855432
0.000855667
0.00085528
0.000854775
0.000854782
0.000855496
0.000856114
0.000856811
0.000857989
0.000858493
0.00085833
0.000859297
0.000860386
0.000861009
0.000860993
0.00086145
0.000862817
0.000864348
0.000865525
0.000865808
0.000864955
0.000864847
0.000867541
0.000867768
0.000867201
0.000866295
0.00086512
0.000864034
0.000863192
0.000862386
0.000861123
0.000859788
0.00085894
0.000858271
0.000857463
0.000855988
0.000855205
0.000854797
0.000854383
0.000853823
0.000853068
0.000852441
0.000852717
0.000853275
0.000853325
0.000853483
0.000853575
0.000853744
0.000853978
0.00085423
0.000854622
0.000854804
0.000854617
0.000854155
0.000854241
0.000855084
0.000855521
0.000855945
0.000856746
0.000857022
0.000856782
0.00085779
0.000858892
0.000859535
0.000859759
0.000860055
0.00086083
0.00086183
0.000863697
0.000864247
0.000863134
0.000860504
0.000866047
0.000866563
0.000865839
0.000864606
0.000863285
0.000862179
0.0008613
0.000860549
0.000859369
0.000858233
0.000857561
0.000857248
0.000856294
0.000854572
0.000854131
0.000853786
0.000853428
0.000852728
0.000851884
0.000851306
0.000851566
0.000852093
0.000852281
0.00085238
0.000852493
0.000853173
0.000853423
0.000853482
0.000853806
0.000853822
0.000853447
0.000852994
0.000853087
0.000853445
0.000853437
0.00085402
0.000854796
0.000854557
0.000854276
0.000855552
0.000857134
0.000858236
0.000858585
0.000858471
0.000857888
0.000857625
0.000859341
0.000861625
0.000858902
0.000860532
0.000863839
0.000864445
0.000863574
0.000862129
0.000860785
0.000859856
0.00085931
0.000858835
0.000858133
0.000857616
0.00085725
0.000856819
0.000855702
0.000854103
0.000853623
0.000853147
0.000852624
0.000851959
0.000851208
0.000850828
0.00085108
0.000851374
0.000851353
0.000851462
0.000851603
0.000852165
0.000852365
0.000852557
0.000852854
0.000852314
0.000851472
0.000851131
0.000851211
0.00085113
0.000850745
0.000851308
0.00085223
0.000851837
0.000851214
0.000852894
0.000855113
0.000856297
0.000856461
0.000856415
0.000856318
0.000856414
0.000858194
0.000859355
0.0008589
0.000860149
0.000863262
0.000863819
0.000862787
0.000861162
0.000859647
0.00085856
0.000857797
0.000857286
0.000856927
0.000856774
0.000856485
0.000855871
0.000854829
0.000853509
0.000853355
0.000853121
0.000852781
0.00085211
0.000851534
0.000851093
0.000851147
0.000851238
0.000851145
0.000851047
0.000850884
0.000851351
0.000851396
0.000851389
0.000851501
0.000851084
0.000850355
0.000850032
0.000849917
0.00084961
0.000849234
0.000850186
0.000851818
0.000852261
0.000851351
0.000852086
0.000853797
0.000854936
0.000854715
0.000854597
0.000855135
0.000856403
0.000858147
0.000860378
0.000859812
0.000859081
0.000861663
0.000862553
0.000861933
0.000860693
0.000859392
0.000858326
0.000857528
0.000857036
0.000856806
0.000856526
0.00085586
0.000855005
0.000854023
0.000852988
0.000852833
0.000852761
0.000852599
0.000852265
0.000851878
0.000851553
0.000851491
0.000851406
0.000851169
0.000851019
0.000850743
0.000851193
0.000851453
0.000851324
0.000850981
0.000850653
0.000850421
0.000850389
0.000850063
0.000849328
0.000848949
0.000849808
0.000851522
0.000852656
0.000852234
0.000852326
0.000853295
0.000854324
0.000854523
0.000854668
0.000855401
0.000856398
0.000857758
0.000858915
0.000858639
0.000858645
0.000859923
0.000860958
0.000860961
0.000860242
0.000859267
0.000858414
0.000857774
0.000857425
0.000857173
0.0008568
0.000855993
0.000855001
0.000854195
0.000853194
0.000852933
0.000852697
0.000852542
0.000852226
0.00085193
0.000851579
0.000851329
0.000851193
0.000850858
0.000850456
0.000850148
0.000850456
0.000850821
0.000850684
0.000850277
0.000850239
0.000850664
0.00085117
0.00085108
0.000850429
0.000850057
0.00085052
0.000851587
0.000852453
0.000851886
0.000851769
0.000852221
0.000853175
0.000854057
0.000854993
0.000856148
0.000856938
0.000857607
0.000858617
0.000858889
0.00085766
0.000858326
0.000859341
0.000859704
0.000859297
0.000858445
0.000857539
0.000856853
0.000856474
0.000856207
0.000855624
0.000854787
0.000853996
0.000853399
0.000852766
0.000852233
0.000851798
0.000851475
0.000851206
0.000851142
0.000851
0.000850843
0.000850933
0.00085107
0.000850916
0.000850182
0.000850099
0.000850227
0.000849918
0.00084927
0.000849365
0.000849513
0.000849743
0.000849812
0.000849741
0.000849849
0.000850483
0.00085131
0.000851974
0.000852045
0.000852195
0.000852762
0.000853866
0.000854992
0.00085617
0.000857405
0.000857954
0.00085836
0.000858656
0.000858362
0.00085907
0.000859033
0.000859002
0.000858924
0.000858361
0.000857403
0.000856511
0.000855839
0.000855263
0.000854573
0.000853837
0.000853375
0.000853275
0.000853065
0.000852695
0.000852224
0.000851879
0.000851529
0.000850888
0.000850959
0.000850795
0.000850154
0.000849765
0.000849685
0.000849378
0.000848698
0.000848271
0.000848107
0.000848002
0.000847824
0.000847742
0.000847768
0.000848049
0.000848198
0.000848354
0.000848761
0.000849472
0.000850392
0.000851249
0.000851658
0.000852044
0.00085255
0.000853352
0.000854333
0.000855295
0.000856405
0.000856951
0.000857473
0.000857895
0.000858293
0.000858623
0.000859536
0.000859997
0.000860041
0.000859505
0.000858527
0.000857572
0.000856767
0.000855919
0.000855041
0.000854169
0.000853406
0.000852907
0.000852244
0.000851495
0.000851004
0.000850729
0.000850514
0.000850189
0.000849822
0.000849371
0.000848834
0.00084858
0.00084853
0.000848534
0.000848082
0.000847683
0.000847423
0.000847317
0.000847129
0.00084705
0.000847041
0.000847151
0.000847256
0.000847718
0.000848346
0.000848855
0.000849747
0.000850768
0.000851282
0.000851329
0.000851581
0.000852616
0.000854229
0.00085549
0.000856439
0.000857274
0.00085785
0.000858514
0.000858662
0.000859595
0.000859818
0.000859353
0.000858658
0.000857814
0.000856825
0.000855956
0.000855337
0.000854718
0.000854088
0.000853399
0.000852725
0.000852071
0.000851352
0.000850529
0.000850007
0.000849773
0.00084973
0.000849514
0.000848908
0.000848299
0.000847794
0.000847589
0.000847437
0.000847252
0.000847047
0.000846892
0.000846643
0.000846464
0.000846372
0.000846246
0.000845876
0.000845674
0.000846099
0.00084713
0.000848323
0.000849169
0.000850048
0.000850745
0.00085101
0.000851217
0.000851953
0.000853185
0.000854298
0.000854905
0.000855393
0.0008562
0.000857012
0.000857649
0.000858553
0.000859582