/*--------------------------------*- C++ -*----------------------------------*\
| =========                 |                                                 |
| \\      /  F ield         | OpenFOAM: The Open Source CFD Toolbox           |
|  \\    /   O peration     | Version:  2.3.0                                 |
|   \\  /    A nd           | Web:      www.OpenFOAM.org                      |
|    \\/     M anipulation  |                                                 |
\*---------------------------------------------------------------------------*/
FoamFile
{
    version     2.0;
    format      ascii;
    class       volScalarField;
    location    "400";
    object      pPrime2Mean;
}
// * * * * * * * * * * * * * * * * * * * * * * * * * * * * * * * * * * * * * //

dimensions      [0 4 -4 0 0 0 0];

internalField   nonuniform List<scalar> 
90000
(
4.39907e-05
4.39987e-05
4.40031e-05
4.39677e-05
4.39489e-05
4.39523e-05
4.39854e-05
4.40318e-05
4.40712e-05
4.41443e-05
4.42401e-05
4.43214e-05
4.44149e-05
4.43985e-05
4.35927e-05
4.3788e-05
4.38822e-05
4.39141e-05
4.39195e-05
4.39287e-05
4.39671e-05
4.40491e-05
4.41765e-05
4.43246e-05
4.44644e-05
4.36154e-05
4.37145e-05
4.37794e-05
4.38231e-05
4.38678e-05
4.39154e-05
4.40013e-05
4.40795e-05
4.41296e-05
4.4183e-05
4.42539e-05
4.43413e-05
4.44601e-05
4.45477e-05
4.36023e-05
4.37652e-05
4.39622e-05
4.41523e-05
4.4301e-05
4.44254e-05
4.45465e-05
4.4656e-05
4.47898e-05
4.49295e-05
4.50035e-05
4.39821e-05
4.39976e-05
4.40022e-05
4.39666e-05
4.39476e-05
4.39517e-05
4.39854e-05
4.4032e-05
4.40707e-05
4.41431e-05
4.42383e-05
4.43181e-05
4.44122e-05
4.44052e-05
4.35812e-05
4.3788e-05
4.38824e-05
4.39147e-05
4.39201e-05
4.39283e-05
4.39674e-05
4.40509e-05
4.4176e-05
4.4323e-05
4.44748e-05
4.36048e-05
4.37148e-05
4.37779e-05
4.38204e-05
4.38659e-05
4.39135e-05
4.39985e-05
4.40774e-05
4.41282e-05
4.4182e-05
4.42534e-05
4.43412e-05
4.44602e-05
4.45597e-05
4.35933e-05
4.37677e-05
4.39672e-05
4.41524e-05
4.4301e-05
4.44261e-05
4.45467e-05
4.46552e-05
4.47877e-05
4.49235e-05
4.50151e-05
4.39643e-05
4.39954e-05
4.40008e-05
4.39638e-05
4.39446e-05
4.39503e-05
4.39852e-05
4.40325e-05
4.40734e-05
4.41467e-05
4.4243e-05
4.43242e-05
4.4416e-05
4.44187e-05
4.35716e-05
4.37874e-05
4.38828e-05
4.3914e-05
4.39172e-05
4.39268e-05
4.39659e-05
4.40464e-05
4.41729e-05
4.43202e-05
4.44862e-05
4.35944e-05
4.37138e-05
4.37786e-05
4.38249e-05
4.38725e-05
4.39211e-05
4.40017e-05
4.40768e-05
4.41264e-05
4.41805e-05
4.42519e-05
4.4339e-05
4.44559e-05
4.45673e-05
4.35824e-05
4.37672e-05
4.39665e-05
4.41492e-05
4.42997e-05
4.4423e-05
4.45421e-05
4.46509e-05
4.47858e-05
4.49232e-05
4.50261e-05
4.39545e-05
4.39966e-05
4.40021e-05
4.39637e-05
4.39432e-05
4.395e-05
4.39846e-05
4.40299e-05
4.40668e-05
4.41413e-05
4.42365e-05
4.43153e-05
4.44065e-05
4.44238e-05
4.35617e-05
4.37838e-05
4.38825e-05
4.39151e-05
4.39168e-05
4.39272e-05
4.39719e-05
4.40558e-05
4.41789e-05
4.4319e-05
4.45007e-05
4.3587e-05
4.37123e-05
4.37762e-05
4.3816e-05
4.38609e-05
4.39182e-05
4.39954e-05
4.40698e-05
4.41218e-05
4.41784e-05
4.42485e-05
4.43368e-05
4.44556e-05
4.458e-05
4.35819e-05
4.37752e-05
4.39735e-05
4.4151e-05
4.43017e-05
4.44249e-05
4.4544e-05
4.46502e-05
4.47815e-05
4.49077e-05
4.50333e-05
4.39501e-05
4.40016e-05
4.39955e-05
4.39541e-05
4.39373e-05
4.39456e-05
4.39812e-05
4.40258e-05
4.40701e-05
4.41477e-05
4.42541e-05
4.43396e-05
4.44229e-05
4.44483e-05
4.35596e-05
4.37831e-05
4.38827e-05
4.39115e-05
4.39082e-05
4.3916e-05
4.39619e-05
4.40427e-05
4.41668e-05
4.43068e-05
4.45009e-05
4.3582e-05
4.37131e-05
4.37826e-05
4.38298e-05
4.38827e-05
4.39362e-05
4.40044e-05
4.40682e-05
4.41186e-05
4.41784e-05
4.42479e-05
4.43386e-05
4.44494e-05
4.45857e-05
4.35769e-05
4.37732e-05
4.39653e-05
4.41454e-05
4.42963e-05
4.44132e-05
4.45331e-05
4.46396e-05
4.47788e-05
4.48964e-05
4.50387e-05
4.39217e-05
4.40086e-05
4.40121e-05
4.39698e-05
4.39426e-05
4.39472e-05
4.39784e-05
4.40165e-05
4.40525e-05
4.41297e-05
4.42268e-05
4.43118e-05
4.44001e-05
4.44372e-05
4.3549e-05
4.37765e-05
4.3877e-05
4.39099e-05
4.39104e-05
4.39237e-05
4.39734e-05
4.40541e-05
4.41728e-05
4.43019e-05
4.45083e-05
4.35799e-05
4.372e-05
4.37852e-05
4.38173e-05
4.38604e-05
4.39304e-05
4.39963e-05
4.40583e-05
4.41129e-05
4.41673e-05
4.4229e-05
4.43232e-05
4.44393e-05
4.45986e-05
4.35853e-05
4.37842e-05
4.39781e-05
4.41614e-05
4.43178e-05
4.44302e-05
4.4542e-05
4.46486e-05
4.47706e-05
4.48768e-05
4.50143e-05
4.39578e-05
4.40194e-05
4.3996e-05
4.39475e-05
4.39203e-05
4.39287e-05
4.39657e-05
4.40094e-05
4.40595e-05
4.41461e-05
4.42556e-05
4.43403e-05
4.44149e-05
4.4449e-05
4.35528e-05
4.37811e-05
4.389e-05
4.39227e-05
4.39e-05
4.39022e-05
4.39574e-05
4.40403e-05
4.41583e-05
4.42844e-05
4.45044e-05
4.35775e-05
4.36979e-05
4.37737e-05
4.38311e-05
4.38866e-05
4.39495e-05
4.40095e-05
4.40675e-05
4.41345e-05
4.41985e-05
4.42535e-05
4.43355e-05
4.44371e-05
4.45839e-05
4.35704e-05
4.37778e-05
4.39668e-05
4.41463e-05
4.42946e-05
4.44047e-05
4.45215e-05
4.46276e-05
4.47604e-05
4.48579e-05
4.50308e-05
4.39086e-05
4.40028e-05
4.39963e-05
4.39469e-05
4.39151e-05
4.3924e-05
4.39647e-05
4.40138e-05
4.40495e-05
4.41224e-05
4.422e-05
4.43168e-05
4.43981e-05
4.44511e-05
4.35631e-05
4.37777e-05
4.38695e-05
4.39011e-05
4.39025e-05
4.39185e-05
4.39718e-05
4.40391e-05
4.41496e-05
4.42822e-05
4.45244e-05
4.36114e-05
4.37351e-05
4.37857e-05
4.38155e-05
4.38491e-05
4.39178e-05
4.39959e-05
4.40588e-05
4.41237e-05
4.41729e-05
4.42208e-05
4.43023e-05
4.44114e-05
4.45786e-05
4.35892e-05
4.37917e-05
4.39757e-05
4.4146e-05
4.42998e-05
4.44049e-05
4.45193e-05
4.46313e-05
4.47654e-05
4.48473e-05
4.49881e-05
4.3931e-05
4.4028e-05
4.40021e-05
4.39504e-05
4.39226e-05
4.39236e-05
4.39438e-05
4.39907e-05
4.40427e-05
4.41404e-05
4.42508e-05
4.43298e-05
4.43873e-05
4.4436e-05
4.35785e-05
4.38142e-05
4.3917e-05
4.39387e-05
4.3901e-05
4.38928e-05
4.39332e-05
4.40122e-05
4.41244e-05
4.4255e-05
4.44982e-05
4.35875e-05
4.3699e-05
4.37652e-05
4.3806e-05
4.38514e-05
4.39379e-05
4.4009e-05
4.40665e-05
4.41206e-05
4.41653e-05
4.42059e-05
4.42907e-05
4.44009e-05
4.4569e-05
4.35858e-05
4.37882e-05
4.39702e-05
4.41433e-05
4.42978e-05
4.44105e-05
4.45274e-05
4.46174e-05
4.47456e-05
4.48154e-05
4.4981e-05
4.39215e-05
4.40192e-05
4.39806e-05
4.39196e-05
4.39047e-05
4.39156e-05
4.3947e-05
4.4005e-05
4.40549e-05
4.41395e-05
4.42215e-05
4.43002e-05
4.4364e-05
4.43994e-05
4.35702e-05
4.38174e-05
4.39105e-05
4.3907e-05
4.38752e-05
4.3872e-05
4.39362e-05
4.40143e-05
4.41183e-05
4.42464e-05
4.44881e-05
4.35936e-05
4.37112e-05
4.37799e-05
4.38279e-05
4.3854e-05
4.39258e-05
4.40003e-05
4.40662e-05
4.41162e-05
4.41648e-05
4.421e-05
4.42853e-05
4.43917e-05
4.4554e-05
4.35904e-05
4.38048e-05
4.39939e-05
4.41322e-05
4.42682e-05
4.43868e-05
4.45128e-05
4.46092e-05
4.47365e-05
4.48081e-05
4.49573e-05
4.39106e-05
4.40064e-05
4.39717e-05
4.39034e-05
4.38745e-05
4.38946e-05
4.39401e-05
4.39971e-05
4.40396e-05
4.41136e-05
4.42077e-05
4.43057e-05
4.43619e-05
4.43837e-05
4.35722e-05
4.38303e-05
4.39161e-05
4.39168e-05
4.38731e-05
4.38769e-05
4.39402e-05
4.39973e-05
4.40907e-05
4.42348e-05
4.44757e-05
4.36242e-05
4.37549e-05
4.38166e-05
4.38537e-05
4.38686e-05
4.39285e-05
4.40183e-05
4.40836e-05
4.40914e-05
4.41013e-05
4.41614e-05
4.42546e-05
4.43616e-05
4.45214e-05
4.36079e-05
4.38195e-05
4.39927e-05
4.41223e-05
4.4257e-05
4.43659e-05
4.44913e-05
4.46196e-05
4.47609e-05
4.48005e-05
4.49245e-05
4.3947e-05
4.40294e-05
4.39801e-05
4.39113e-05
4.38822e-05
4.38926e-05
4.39016e-05
4.39505e-05
4.40206e-05
4.41371e-05
4.42444e-05
4.43048e-05
4.43438e-05
4.43783e-05
4.36105e-05
4.38938e-05
4.39986e-05
4.39748e-05
4.38879e-05
4.38715e-05
4.39161e-05
4.39838e-05
4.40902e-05
4.42301e-05
4.44224e-05
4.35581e-05
4.37138e-05
4.37918e-05
4.38599e-05
4.38708e-05
4.39288e-05
4.4014e-05
4.40749e-05
4.4074e-05
4.40958e-05
4.4146e-05
4.42611e-05
4.43794e-05
4.45332e-05
4.36208e-05
4.3836e-05
4.40056e-05
4.41346e-05
4.42651e-05
4.43727e-05
4.44784e-05
4.45736e-05
4.47019e-05
4.47833e-05
4.49654e-05
4.38821e-05
4.39972e-05
4.3978e-05
4.39175e-05
4.39081e-05
4.39521e-05
4.39826e-05
4.40173e-05
4.40577e-05
4.41426e-05
4.42076e-05
4.42691e-05
4.43346e-05
4.43978e-05
4.35993e-05
4.38304e-05
4.39117e-05
4.39201e-05
4.38403e-05
4.38464e-05
4.38972e-05
4.39677e-05
4.40657e-05
4.41962e-05
4.44146e-05
4.3611e-05
4.37749e-05
4.3861e-05
4.39181e-05
4.38972e-05
4.39614e-05
4.4031e-05
4.40827e-05
4.40811e-05
4.40993e-05
4.41022e-05
4.41772e-05
4.42778e-05
4.44724e-05
4.36144e-05
4.3859e-05
4.40316e-05
4.41525e-05
4.42696e-05
4.43959e-05
4.45378e-05
4.46591e-05
4.47711e-05
4.48699e-05
4.49469e-05
4.38719e-05
4.39838e-05
4.39802e-05
4.39349e-05
4.38869e-05
4.3861e-05
4.38727e-05
4.39348e-05
4.40093e-05
4.41107e-05
4.41884e-05
4.42507e-05
4.43e-05
4.43831e-05
4.36539e-05
4.39202e-05
4.40199e-05
4.40185e-05
4.38734e-05
4.38753e-05
4.39224e-05
4.39631e-05
4.4027e-05
4.41386e-05
4.43479e-05
4.35505e-05
4.37167e-05
4.38028e-05
4.38847e-05
4.38585e-05
4.39601e-05
4.40457e-05
4.41082e-05
4.4106e-05
4.41482e-05
4.41227e-05
4.42142e-05
4.43151e-05
4.45015e-05
4.36795e-05
4.38966e-05
4.40443e-05
4.41727e-05
4.42892e-05
4.43702e-05
4.44587e-05
4.45591e-05
4.47036e-05
4.47893e-05
4.49413e-05
4.38298e-05
4.39403e-05
4.39564e-05
4.39236e-05
4.39294e-05
4.39281e-05
4.39492e-05
4.39881e-05
4.40417e-05
4.41328e-05
4.41964e-05
4.42384e-05
4.42527e-05
4.43262e-05
4.36252e-05
4.38566e-05
4.39593e-05
4.39867e-05
4.37635e-05
4.37997e-05
4.38695e-05
4.39355e-05
4.40254e-05
4.41438e-05
4.43639e-05
4.36447e-05
4.37922e-05
4.38801e-05
4.3991e-05
4.39069e-05
4.40115e-05
4.40742e-05
4.41409e-05
4.41143e-05
4.41449e-05
4.40167e-05
4.41039e-05
4.42182e-05
4.44118e-05
4.3661e-05
4.38767e-05
4.40291e-05
4.41695e-05
4.4292e-05
4.44245e-05
4.45371e-05
4.46519e-05
4.47504e-05
4.48463e-05
4.49796e-05
4.38662e-05
4.39799e-05
4.39512e-05
4.38821e-05
4.38323e-05
4.38377e-05
4.38796e-05
4.39439e-05
4.4012e-05
4.40792e-05
4.41417e-05
4.41975e-05
4.42371e-05
4.43114e-05
4.37674e-05
4.39714e-05
4.40907e-05
4.4135e-05
4.37632e-05
4.38385e-05
4.39054e-05
4.39664e-05
4.40467e-05
4.41317e-05
4.42732e-05
4.36375e-05
4.37666e-05
4.38594e-05
4.40055e-05
4.38275e-05
4.39652e-05
4.40452e-05
4.4139e-05
4.41035e-05
4.42077e-05
4.39656e-05
4.40838e-05
4.4182e-05
4.43631e-05
4.37745e-05
4.39651e-05
4.41003e-05
4.41886e-05
4.42571e-05
4.43345e-05
4.44712e-05
4.46061e-05
4.47515e-05
4.48609e-05
4.49677e-05
4.38035e-05
4.39622e-05
4.40026e-05
4.3962e-05
4.39319e-05
4.39344e-05
4.39487e-05
4.39837e-05
4.40455e-05
4.41095e-05
4.41577e-05
4.4203e-05
4.42276e-05
4.42102e-05
4.38829e-05
4.399e-05
4.40805e-05
4.42348e-05
4.36293e-05
4.37656e-05
4.38366e-05
4.38946e-05
4.39772e-05
4.40565e-05
4.41147e-05
4.37486e-05
4.38124e-05
4.38935e-05
4.40071e-05
4.39135e-05
4.40357e-05
4.41185e-05
4.42044e-05
4.41077e-05
4.42741e-05
4.38198e-05
4.40248e-05
4.41538e-05
4.42378e-05
4.38772e-05
4.39543e-05
4.40654e-05
4.41837e-05
4.43068e-05
4.44151e-05
4.4547e-05
4.46694e-05
4.47753e-05
4.48806e-05
4.50018e-05
4.38208e-05
4.40194e-05
4.40482e-05
4.39585e-05
4.38886e-05
4.38644e-05
4.38805e-05
4.39184e-05
4.39837e-05
4.40654e-05
4.41183e-05
4.41648e-05
4.41812e-05
4.41345e-05
4.39575e-05
4.40366e-05
4.41399e-05
4.43441e-05
4.35838e-05
4.37723e-05
4.3856e-05
4.39219e-05
4.39957e-05
4.40544e-05
4.40638e-05
4.38407e-05
4.38554e-05
4.3924e-05
4.40013e-05
4.39682e-05
4.40372e-05
4.41172e-05
4.42245e-05
4.41285e-05
4.4365e-05
4.37983e-05
4.39967e-05
4.4112e-05
4.41481e-05
4.39805e-05
4.40214e-05
4.41063e-05
4.42157e-05
4.43302e-05
4.44236e-05
4.4541e-05
4.46508e-05
4.47508e-05
4.48425e-05
4.4948e-05
4.36784e-05
4.39885e-05
4.40416e-05
4.3919e-05
4.38288e-05
4.38109e-05
4.38282e-05
4.38912e-05
4.39769e-05
4.40703e-05
4.41281e-05
4.41656e-05
4.41781e-05
4.41578e-05
4.40759e-05
4.41268e-05
4.42113e-05
4.44271e-05
4.35664e-05
4.37628e-05
4.3848e-05
4.39101e-05
4.39794e-05
4.40266e-05
4.40194e-05
4.38993e-05
4.39017e-05
4.39386e-05
4.3987e-05
4.39768e-05
4.40543e-05
4.41642e-05
4.42966e-05
4.41496e-05
4.43768e-05
4.37323e-05
4.39516e-05
4.40828e-05
4.41235e-05
4.40346e-05
4.40581e-05
4.41096e-05
4.42068e-05
4.42861e-05
4.43813e-05
4.4492e-05
4.46314e-05
4.47299e-05
4.48566e-05
4.48535e-05
4.40166e-05
4.42705e-05
4.41726e-05
4.39349e-05
4.38163e-05
4.37709e-05
4.37821e-05
4.38673e-05
4.39953e-05
4.40907e-05
4.4119e-05
4.41481e-05
4.41683e-05
4.4143e-05
4.413e-05
4.41996e-05
4.42869e-05
4.44078e-05
4.35388e-05
4.37266e-05
4.38244e-05
4.38864e-05
4.39396e-05
4.39792e-05
4.39841e-05
4.3932e-05
4.39679e-05
4.40342e-05
4.40824e-05
4.40809e-05
4.40643e-05
4.41072e-05
4.42159e-05
4.40707e-05
4.42588e-05
4.36587e-05
4.39151e-05
4.40751e-05
4.41208e-05
4.4058e-05
4.40305e-05
4.41003e-05
4.42297e-05
4.43407e-05
4.44371e-05
4.45541e-05
4.46494e-05
4.47885e-05
4.48268e-05
4.49365e-05
4.3332e-05
4.45222e-05
4.44707e-05
4.40958e-05
4.38962e-05
4.38354e-05
4.38084e-05
4.38332e-05
4.39145e-05
4.39879e-05
4.40398e-05
4.40782e-05
4.41097e-05
4.40941e-05
4.40968e-05
4.41682e-05
4.43143e-05
4.44401e-05
4.36928e-05
4.38846e-05
4.38858e-05
4.38815e-05
4.39328e-05
4.3967e-05
4.3957e-05
4.39178e-05
4.39425e-05
4.40012e-05
4.40625e-05
4.41004e-05
4.41267e-05
4.41953e-05
4.42239e-05
4.40131e-05
4.41446e-05
4.36571e-05
4.38906e-05
4.4061e-05
4.41251e-05
4.41353e-05
4.40264e-05
4.40632e-05
4.42505e-05
4.43391e-05
4.44591e-05
4.46211e-05
4.47305e-05
4.47735e-05
4.48755e-05
4.41772e-05
4.40454e-05
4.40846e-05
4.41004e-05
4.39527e-05
4.38146e-05
4.37008e-05
4.36688e-05
4.37786e-05
4.39281e-05
4.40102e-05
4.40374e-05
4.40615e-05
4.4088e-05
4.41002e-05
4.41377e-05
4.42424e-05
4.43602e-05
4.44176e-05
4.36345e-05
4.38206e-05
4.39046e-05
4.39401e-05
4.39403e-05
4.3959e-05
4.39917e-05
4.40009e-05
4.40042e-05
4.40083e-05
4.39981e-05
4.40492e-05
4.40519e-05
4.41028e-05
4.42295e-05
4.40658e-05
4.42397e-05
4.36156e-05
4.38765e-05
4.40155e-05
4.41021e-05
4.41296e-05
4.41673e-05
4.42499e-05
4.43325e-05
4.44016e-05
4.44734e-05
4.45727e-05
4.46061e-05
4.471e-05
4.47032e-05
4.49005e-05
4.3734e-05
4.41562e-05
4.41162e-05
4.3939e-05
4.38033e-05
4.37417e-05
4.37363e-05
4.37779e-05
4.38723e-05
4.39905e-05
4.40982e-05
4.41615e-05
4.41675e-05
4.41659e-05
4.42017e-05
4.42869e-05
4.43976e-05
4.45141e-05
4.35122e-05
4.37304e-05
4.37819e-05
4.37946e-05
4.38576e-05
4.39138e-05
4.39502e-05
4.39836e-05
4.40176e-05
4.40518e-05
4.40779e-05
4.41203e-05
4.41854e-05
4.4302e-05
4.43848e-05
4.41854e-05
4.43428e-05
4.36123e-05
4.38654e-05
4.39672e-05
4.40197e-05
4.40592e-05
4.40788e-05
4.41208e-05
4.42263e-05
4.43427e-05
4.44603e-05
4.45752e-05
4.46959e-05
4.47743e-05
4.49218e-05
4.48172e-05
4.3904e-05
4.40966e-05
4.40322e-05
4.3895e-05
4.37704e-05
4.36777e-05
4.36446e-05
4.3677e-05
4.37483e-05
4.38829e-05
4.39734e-05
4.40007e-05
4.40364e-05
4.41027e-05
4.41699e-05
4.42826e-05
4.44094e-05
4.45707e-05
4.35146e-05
4.37076e-05
4.3861e-05
4.39802e-05
4.40441e-05
4.40634e-05
4.40706e-05
4.40714e-05
4.4058e-05
4.4025e-05
4.39942e-05
4.39988e-05
4.40508e-05
4.41317e-05
4.42312e-05
4.40755e-05
4.42985e-05
4.35928e-05
4.38603e-05
4.40274e-05
4.41297e-05
4.41851e-05
4.42308e-05
4.43059e-05
4.43925e-05
4.44522e-05
4.4494e-05
4.45602e-05
4.46071e-05
4.4722e-05
4.4804e-05
4.49377e-05
4.40199e-05
4.39954e-05
4.38496e-05
4.37408e-05
4.36546e-05
4.35994e-05
4.35901e-05
4.36345e-05
4.37577e-05
4.39325e-05
4.40935e-05
4.42105e-05
4.42766e-05
4.43185e-05
4.43541e-05
4.4425e-05
4.44968e-05
4.45818e-05
4.34121e-05
4.35714e-05
4.36756e-05
4.37264e-05
4.37709e-05
4.38368e-05
4.39159e-05
4.39766e-05
4.40188e-05
4.40518e-05
4.40816e-05
4.41206e-05
4.4197e-05
4.4313e-05
4.44464e-05
4.42979e-05
4.44604e-05
4.36019e-05
4.38282e-05
4.39736e-05
4.40568e-05
4.41258e-05
4.41672e-05
4.41606e-05
4.4216e-05
4.43146e-05
4.44062e-05
4.45262e-05
4.46302e-05
4.47921e-05
4.49096e-05
4.51033e-05
4.35808e-05
4.37486e-05
4.38323e-05
4.38462e-05
4.37886e-05
4.36995e-05
4.35996e-05
4.35458e-05
4.36528e-05
4.38753e-05
4.40092e-05
4.40206e-05
4.40034e-05
4.40199e-05
4.40857e-05
4.41979e-05
4.43128e-05
4.4485e-05
4.3431e-05
4.36302e-05
4.37828e-05
4.39138e-05
4.40128e-05
4.4085e-05
4.41351e-05
4.4143e-05
4.41049e-05
4.40519e-05
4.39852e-05
4.40026e-05
4.40887e-05
4.41672e-05
4.42841e-05
4.41321e-05
4.43581e-05
4.36178e-05
4.38694e-05
4.40561e-05
4.41876e-05
4.4263e-05
4.42793e-05
4.42675e-05
4.4339e-05
4.4463e-05
4.45858e-05
4.47048e-05
4.47857e-05
4.48531e-05
4.48969e-05
4.49156e-05
4.39775e-05
4.39218e-05
4.36641e-05
4.34719e-05
4.33894e-05
4.3318e-05
4.33185e-05
4.33205e-05
4.3513e-05
4.38262e-05
4.40451e-05
4.41382e-05
4.41778e-05
4.42148e-05
4.42659e-05
4.43433e-05
4.44179e-05
4.45338e-05
4.33902e-05
4.35583e-05
4.37003e-05
4.38091e-05
4.39031e-05
4.39894e-05
4.40363e-05
4.40659e-05
4.40832e-05
4.40766e-05
4.40414e-05
4.40913e-05
4.41632e-05
4.4235e-05
4.43432e-05
4.42274e-05
4.45257e-05
4.38483e-05
4.40887e-05
4.4209e-05
4.42791e-05
4.43165e-05
4.43229e-05
4.42034e-05
4.4171e-05
4.41722e-05
4.42254e-05
4.43567e-05
4.44775e-05
4.46346e-05
4.47719e-05
4.49987e-05
4.34636e-05
4.35152e-05
4.35103e-05
4.35345e-05
4.34344e-05
4.33828e-05
4.32619e-05
4.35297e-05
4.3732e-05
4.40993e-05
4.42627e-05
4.4255e-05
4.42004e-05
4.41357e-05
4.41522e-05
4.42188e-05
4.43123e-05
4.44961e-05
4.34759e-05
4.36874e-05
4.38604e-05
4.39933e-05
4.40745e-05
4.41132e-05
4.41752e-05
4.42723e-05
4.43509e-05
4.43006e-05
4.40414e-05
4.4044e-05
4.40613e-05
4.41271e-05
4.42133e-05
4.40728e-05
4.42617e-05
4.36532e-05
4.38985e-05
4.40574e-05
4.41947e-05
4.43301e-05
4.44197e-05
4.40502e-05
4.40351e-05
4.41083e-05
4.42414e-05
4.44357e-05
4.45957e-05
4.47203e-05
4.47851e-05
4.48205e-05
4.38162e-05
4.38237e-05
4.36739e-05
4.35459e-05
4.34499e-05
4.33866e-05
4.34274e-05
4.36414e-05
4.34293e-05
4.38535e-05
4.41371e-05
4.43028e-05
4.43325e-05
4.40706e-05
4.40519e-05
4.41674e-05
4.43419e-05
4.45776e-05
4.37219e-05
4.38543e-05
4.3924e-05
4.39829e-05
4.40633e-05
4.41333e-05
4.41634e-05
4.41813e-05
4.42204e-05
4.41624e-05
4.35743e-05
4.37899e-05
4.39211e-05
4.40392e-05
4.40765e-05
4.39844e-05
4.39799e-05
4.39057e-05
4.41029e-05
4.42806e-05
4.43996e-05
4.45138e-05
4.47293e-05
4.38027e-05
4.39814e-05
4.41097e-05
4.42213e-05
4.43576e-05
4.44774e-05
4.4626e-05
4.47197e-05
4.48999e-05
4.36368e-05
4.36976e-05
4.36816e-05
4.36113e-05
4.35139e-05
4.34673e-05
4.35246e-05
4.36254e-05
4.37268e-05
4.40178e-05
4.42338e-05
4.43338e-05
4.45173e-05
4.37037e-05
4.38603e-05
4.3929e-05
4.39798e-05
4.39509e-05
4.37044e-05
4.37804e-05
4.39283e-05
4.40741e-05
4.4174e-05
4.41953e-05
4.41726e-05
4.41998e-05
4.44566e-05
4.37314e-05
4.37435e-05
4.37895e-05
4.38617e-05
4.39675e-05
4.40443e-05
4.40464e-05
4.40262e-05
4.40123e-05
4.40953e-05
4.4229e-05
4.43648e-05
4.45052e-05
4.47455e-05
4.37552e-05
4.39813e-05
4.41087e-05
4.41836e-05
4.4273e-05
4.44072e-05
4.45782e-05
4.47154e-05
4.4792e-05
4.39085e-05
4.40081e-05
4.40146e-05
4.39903e-05
4.39812e-05
4.3987e-05
4.40031e-05
4.40522e-05
4.41243e-05
4.42179e-05
4.43062e-05
4.44006e-05
4.44372e-05
4.43576e-05
4.36121e-05
4.37781e-05
4.38467e-05
4.38753e-05
4.38789e-05
4.38851e-05
4.39352e-05
4.4031e-05
4.4159e-05
4.43051e-05
4.44979e-05
4.36092e-05
4.37464e-05
4.38281e-05
4.38737e-05
4.3899e-05
4.39472e-05
4.39929e-05
4.40384e-05
4.40894e-05
4.41537e-05
4.42264e-05
4.43103e-05
4.44087e-05
4.4567e-05
4.36129e-05
4.38252e-05
4.40134e-05
4.41835e-05
4.43362e-05
4.44575e-05
4.4561e-05
4.46401e-05
4.47498e-05
4.48513e-05
4.49741e-05
4.39018e-05
4.40059e-05
4.40117e-05
4.3986e-05
4.39795e-05
4.3984e-05
4.39959e-05
4.40407e-05
4.41121e-05
4.42096e-05
4.43039e-05
4.44013e-05
4.44335e-05
4.43469e-05
4.35982e-05
4.37684e-05
4.38423e-05
4.38766e-05
4.38827e-05
4.38917e-05
4.39427e-05
4.40379e-05
4.41656e-05
4.43118e-05
4.45045e-05
4.36107e-05
4.37468e-05
4.3827e-05
4.38749e-05
4.39027e-05
4.3953e-05
4.40019e-05
4.40438e-05
4.409e-05
4.41526e-05
4.42269e-05
4.43198e-05
4.44234e-05
4.45795e-05
4.3618e-05
4.38288e-05
4.40137e-05
4.41827e-05
4.43348e-05
4.44558e-05
4.45579e-05
4.46318e-05
4.47347e-05
4.48356e-05
4.49625e-05
4.391e-05
4.40142e-05
4.40217e-05
4.39915e-05
4.39842e-05
4.39961e-05
4.40175e-05
4.40716e-05
4.41452e-05
4.42357e-05
4.43128e-05
4.44064e-05
4.44518e-05
4.43648e-05
4.36103e-05
4.37736e-05
4.38474e-05
4.38885e-05
4.3892e-05
4.38995e-05
4.3947e-05
4.40462e-05
4.41808e-05
4.43232e-05
4.45095e-05
4.36075e-05
4.37514e-05
4.38419e-05
4.38903e-05
4.39113e-05
4.39632e-05
4.40154e-05
4.40565e-05
4.41086e-05
4.4167e-05
4.42311e-05
4.4311e-05
4.44046e-05
4.45625e-05
4.36098e-05
4.38409e-05
4.40348e-05
4.42054e-05
4.43524e-05
4.44699e-05
4.45684e-05
4.46456e-05
4.47588e-05
4.48623e-05
4.49843e-05
4.38886e-05
4.40096e-05
4.40211e-05
4.39825e-05
4.39709e-05
4.39765e-05
4.39942e-05
4.40504e-05
4.41262e-05
4.42178e-05
4.43086e-05
4.44045e-05
4.44516e-05
4.43631e-05
4.36033e-05
4.37718e-05
4.38544e-05
4.3898e-05
4.39013e-05
4.39038e-05
4.39492e-05
4.40478e-05
4.41795e-05
4.43165e-05
4.45096e-05
4.35976e-05
4.37433e-05
4.38276e-05
4.38813e-05
4.39019e-05
4.39582e-05
4.40109e-05
4.40527e-05
4.41034e-05
4.4164e-05
4.42325e-05
4.43208e-05
4.4426e-05
4.45925e-05
4.36302e-05
4.38507e-05
4.40399e-05
4.42129e-05
4.43553e-05
4.44593e-05
4.45546e-05
4.46279e-05
4.47387e-05
4.48379e-05
4.49565e-05
4.38748e-05
4.40074e-05
4.40193e-05
4.39759e-05
4.39656e-05
4.39822e-05
4.40068e-05
4.40666e-05
4.41444e-05
4.42355e-05
4.43091e-05
4.43967e-05
4.44433e-05
4.43489e-05
4.35788e-05
4.37423e-05
4.38258e-05
4.38739e-05
4.38905e-05
4.38957e-05
4.39432e-05
4.40494e-05
4.41818e-05
4.432e-05
4.45267e-05
4.36152e-05
4.37645e-05
4.38484e-05
4.38901e-05
4.39139e-05
4.39594e-05
4.39986e-05
4.40495e-05
4.41019e-05
4.41581e-05
4.42242e-05
4.43102e-05
4.44158e-05
4.45792e-05
4.36005e-05
4.38311e-05
4.40277e-05
4.4208e-05
4.43551e-05
4.44677e-05
4.45622e-05
4.46335e-05
4.47446e-05
4.48404e-05
4.49594e-05
4.38646e-05
4.4018e-05
4.40203e-05
4.39556e-05
4.39308e-05
4.39355e-05
4.39654e-05
4.40398e-05
4.4129e-05
4.42144e-05
4.42921e-05
4.43864e-05
4.44471e-05
4.43553e-05
4.36038e-05
4.37806e-05
4.38731e-05
4.39094e-05
4.39043e-05
4.39023e-05
4.39497e-05
4.40423e-05
4.41745e-05
4.43153e-05
4.45266e-05
4.36033e-05
4.37578e-05
4.38411e-05
4.3879e-05
4.38818e-05
4.39283e-05
4.39725e-05
4.4025e-05
4.4086e-05
4.41576e-05
4.42275e-05
4.43124e-05
4.44229e-05
4.4595e-05
4.36183e-05
4.38447e-05
4.40459e-05
4.42144e-05
4.43439e-05
4.44326e-05
4.45228e-05
4.46093e-05
4.47424e-05
4.48425e-05
4.49411e-05
4.38478e-05
4.4047e-05
4.4048e-05
4.39768e-05
4.39515e-05
4.39649e-05
4.39912e-05
4.40546e-05
4.41379e-05
4.42159e-05
4.42912e-05
4.43847e-05
4.44428e-05
4.43363e-05
4.3576e-05
4.37557e-05
4.38557e-05
4.38918e-05
4.38923e-05
4.3891e-05
4.39306e-05
4.40265e-05
4.41579e-05
4.43047e-05
4.45296e-05
4.36111e-05
4.37702e-05
4.38586e-05
4.38927e-05
4.39146e-05
4.39552e-05
4.39866e-05
4.40344e-05
4.40795e-05
4.41286e-05
4.41922e-05
4.4293e-05
4.44175e-05
4.45939e-05
4.35991e-05
4.38177e-05
4.40216e-05
4.42001e-05
4.43414e-05
4.44562e-05
4.45602e-05
4.46385e-05
4.47548e-05
4.48432e-05
4.49206e-05
4.38382e-05
4.40885e-05
4.40697e-05
4.39516e-05
4.39275e-05
4.39364e-05
4.39696e-05
4.40438e-05
4.41329e-05
4.42153e-05
4.42856e-05
4.43757e-05
4.44336e-05
4.43236e-05
4.35765e-05
4.37758e-05
4.38827e-05
4.39196e-05
4.39005e-05
4.3904e-05
4.39566e-05
4.40491e-05
4.41657e-05
4.43e-05
4.4507e-05
4.35829e-05
4.37484e-05
4.38368e-05
4.38738e-05
4.38898e-05
4.39251e-05
4.39724e-05
4.4027e-05
4.40859e-05
4.41573e-05
4.42313e-05
4.4319e-05
4.44399e-05
4.46115e-05
4.36142e-05
4.38188e-05
4.40242e-05
4.41933e-05
4.43302e-05
4.44401e-05
4.4546e-05
4.46299e-05
4.47555e-05
4.48359e-05
4.4872e-05
4.38046e-05
4.41023e-05
4.40859e-05
4.3952e-05
4.39018e-05
4.3907e-05
4.3951e-05
4.4029e-05
4.41241e-05
4.42042e-05
4.42853e-05
4.43802e-05
4.44459e-05
4.4318e-05
4.35956e-05
4.38038e-05
4.39156e-05
4.39437e-05
4.3912e-05
4.39076e-05
4.39441e-05
4.40262e-05
4.41465e-05
4.43006e-05
4.44957e-05
4.35928e-05
4.37606e-05
4.38446e-05
4.38825e-05
4.3894e-05
4.39253e-05
4.3973e-05
4.40315e-05
4.40774e-05
4.41301e-05
4.41968e-05
4.43032e-05
4.44457e-05
4.46161e-05
4.36394e-05
4.38435e-05
4.40339e-05
4.42116e-05
4.43318e-05
4.44362e-05
4.45423e-05
4.4631e-05
4.47581e-05
4.484e-05
4.48349e-05
4.39342e-05
4.42133e-05
4.41465e-05
4.39739e-05
4.3925e-05
4.39287e-05
4.39683e-05
4.40339e-05
4.41251e-05
4.41933e-05
4.42655e-05
4.4355e-05
4.44447e-05
4.42884e-05
4.36e-05
4.38364e-05
4.39394e-05
4.39495e-05
4.39122e-05
4.39096e-05
4.39416e-05
4.40249e-05
4.41349e-05
4.42867e-05
4.44475e-05
4.35818e-05
4.37693e-05
4.38567e-05
4.3906e-05
4.39216e-05
4.3944e-05
4.39881e-05
4.40501e-05
4.4098e-05
4.41624e-05
4.42142e-05
4.42885e-05
4.44392e-05
4.45977e-05
4.36101e-05
4.38092e-05
4.40247e-05
4.41997e-05
4.4343e-05
4.44654e-05
4.45864e-05
4.46599e-05
4.48272e-05
4.48294e-05
4.48115e-05
4.36801e-05
4.4245e-05
4.42293e-05
4.40092e-05
4.39312e-05
4.39268e-05
4.39547e-05
4.39999e-05
4.40837e-05
4.41647e-05
4.42406e-05
4.43256e-05
4.44252e-05
4.42271e-05
4.36012e-05
4.38539e-05
4.39738e-05
4.40003e-05
4.39411e-05
4.39444e-05
4.39752e-05
4.40394e-05
4.41532e-05
4.43161e-05
4.44151e-05
4.36341e-05
4.38056e-05
4.38681e-05
4.38851e-05
4.38902e-05
4.39329e-05
4.39871e-05
4.40425e-05
4.40805e-05
4.41292e-05
4.41794e-05
4.42895e-05
4.44674e-05
4.46098e-05
4.36861e-05
4.38396e-05
4.40357e-05
4.4209e-05
4.43577e-05
4.44787e-05
4.45858e-05
4.46339e-05
4.47984e-05
4.48872e-05
4.45788e-05
4.3877e-05
4.40783e-05
4.41015e-05
4.39657e-05
4.39108e-05
4.39112e-05
4.39509e-05
4.40146e-05
4.40943e-05
4.41759e-05
4.42735e-05
4.43566e-05
4.44303e-05
4.42479e-05
4.36406e-05
4.38633e-05
4.3951e-05
4.39548e-05
4.39019e-05
4.39138e-05
4.39688e-05
4.40316e-05
4.4141e-05
4.42898e-05
4.44073e-05
4.3649e-05
4.3809e-05
4.38927e-05
4.39244e-05
4.39077e-05
4.3927e-05
4.3993e-05
4.40666e-05
4.41083e-05
4.4152e-05
4.41578e-05
4.42422e-05
4.43936e-05
4.45471e-05
4.36337e-05
4.38539e-05
4.40538e-05
4.42198e-05
4.43544e-05
4.4465e-05
4.45812e-05
4.46559e-05
4.48132e-05
4.47814e-05
4.4769e-05
4.38335e-05
4.41544e-05
4.41332e-05
4.39997e-05
4.39383e-05
4.39256e-05
4.39509e-05
4.4002e-05
4.40833e-05
4.41692e-05
4.42716e-05
4.43556e-05
4.44324e-05
4.42804e-05
4.36603e-05
4.39047e-05
4.39988e-05
4.39999e-05
4.38966e-05
4.39111e-05
4.3948e-05
4.40054e-05
4.41277e-05
4.42817e-05
4.44247e-05
4.35995e-05
4.38038e-05
4.38996e-05
4.39343e-05
4.39016e-05
4.39534e-05
4.40278e-05
4.41005e-05
4.41419e-05
4.41841e-05
4.41562e-05
4.42469e-05
4.44028e-05
4.45748e-05
4.3647e-05
4.3867e-05
4.40532e-05
4.42146e-05
4.43453e-05
4.44594e-05
4.45785e-05
4.46667e-05
4.4783e-05
4.49008e-05
4.48199e-05
4.38436e-05
4.41315e-05
4.41218e-05
4.40123e-05
4.39533e-05
4.39291e-05
4.39377e-05
4.39815e-05
4.40613e-05
4.41542e-05
4.42331e-05
4.42924e-05
4.43924e-05
4.43043e-05
4.36582e-05
4.39093e-05
4.40219e-05
4.4022e-05
4.38848e-05
4.39048e-05
4.39628e-05
4.40328e-05
4.41488e-05
4.4289e-05
4.44581e-05
4.35965e-05
4.38038e-05
4.39141e-05
4.39696e-05
4.39033e-05
4.39695e-05
4.40393e-05
4.41178e-05
4.41541e-05
4.41933e-05
4.41165e-05
4.42095e-05
4.43578e-05
4.4545e-05
4.36631e-05
4.39068e-05
4.41082e-05
4.42705e-05
4.43825e-05
4.44793e-05
4.45871e-05
4.46605e-05
4.47825e-05
4.48352e-05
4.48535e-05
4.39076e-05
4.40964e-05
4.40648e-05
4.39767e-05
4.39305e-05
4.39193e-05
4.39415e-05
4.39919e-05
4.40753e-05
4.41583e-05
4.42484e-05
4.43205e-05
4.4412e-05
4.43982e-05
4.37313e-05
4.39696e-05
4.40703e-05
4.40783e-05
4.3848e-05
4.38833e-05
4.39342e-05
4.39958e-05
4.41077e-05
4.42342e-05
4.43826e-05
4.35881e-05
4.37919e-05
4.39152e-05
4.39898e-05
4.38625e-05
4.39848e-05
4.41025e-05
4.42092e-05
4.42508e-05
4.42835e-05
4.40909e-05
4.41786e-05
4.43224e-05
4.45096e-05
4.36718e-05
4.3898e-05
4.40668e-05
4.4195e-05
4.43142e-05
4.44276e-05
4.4567e-05
4.4659e-05
4.47764e-05
4.48852e-05
4.49726e-05
4.3811e-05
4.40234e-05
4.40707e-05
4.40249e-05
4.39817e-05
4.39597e-05
4.39566e-05
4.39831e-05
4.4046e-05
4.41438e-05
4.4216e-05
4.42506e-05
4.4307e-05
4.43187e-05
4.3764e-05
4.39474e-05
4.40635e-05
4.41057e-05
4.37481e-05
4.38148e-05
4.38902e-05
4.39967e-05
4.41433e-05
4.42798e-05
4.44175e-05
4.3715e-05
4.38499e-05
4.39602e-05
4.40644e-05
4.38198e-05
4.3992e-05
4.4077e-05
4.41602e-05
4.41968e-05
4.42637e-05
4.39494e-05
4.41063e-05
4.42515e-05
4.44281e-05
4.37717e-05
4.39418e-05
4.41028e-05
4.42515e-05
4.43881e-05
4.45031e-05
4.4633e-05
4.47143e-05
4.4803e-05
4.48926e-05
4.49892e-05
4.39778e-05
4.40823e-05
4.40124e-05
4.39466e-05
4.39004e-05
4.38636e-05
4.38581e-05
4.39053e-05
4.39928e-05
4.40738e-05
4.41304e-05
4.42096e-05
4.43164e-05
4.43517e-05
4.40371e-05
4.41043e-05
4.41907e-05
4.42924e-05
4.36416e-05
4.38209e-05
4.38997e-05
4.39625e-05
4.4067e-05
4.41651e-05
4.41627e-05
4.372e-05
4.38106e-05
4.3927e-05
4.40102e-05
4.38894e-05
4.40172e-05
4.41176e-05
4.42098e-05
4.42655e-05
4.44545e-05
4.38817e-05
4.41207e-05
4.42323e-05
4.42914e-05
4.38925e-05
4.3982e-05
4.41157e-05
4.4212e-05
4.43139e-05
4.4438e-05
4.45665e-05
4.46265e-05
4.47321e-05
4.48265e-05
4.50178e-05
4.37643e-05
4.39205e-05
4.3985e-05
4.39999e-05
4.39947e-05
4.39711e-05
4.39537e-05
4.39669e-05
4.40211e-05
4.40922e-05
4.41411e-05
4.41825e-05
4.42369e-05
4.4222e-05
4.40352e-05
4.40449e-05
4.41381e-05
4.4312e-05
4.35602e-05
4.37632e-05
4.3865e-05
4.39716e-05
4.40711e-05
4.41199e-05
4.41011e-05
4.38613e-05
4.39073e-05
4.39989e-05
4.404e-05
4.39505e-05
4.4032e-05
4.41297e-05
4.42248e-05
4.42371e-05
4.44666e-05
4.37507e-05
4.40019e-05
4.40997e-05
4.41387e-05
4.39552e-05
4.39867e-05
4.40284e-05
4.41288e-05
4.43187e-05
4.45096e-05
4.46636e-05
4.47365e-05
4.48086e-05
4.49003e-05
4.49729e-05
4.39477e-05
4.40655e-05
4.40268e-05
4.39447e-05
4.38782e-05
4.38105e-05
4.37968e-05
4.38544e-05
4.3938e-05
4.40241e-05
4.40959e-05
4.41699e-05
4.42406e-05
4.42309e-05
4.41117e-05
4.41109e-05
4.41997e-05
4.44124e-05
4.35808e-05
4.37492e-05
4.38233e-05
4.3914e-05
4.40168e-05
4.40592e-05
4.39856e-05
4.38493e-05
4.38861e-05
4.3941e-05
4.39525e-05
4.39364e-05
4.40417e-05
4.41024e-05
4.41295e-05
4.41747e-05
4.44839e-05
4.37541e-05
4.40352e-05
4.41306e-05
4.41267e-05
4.40052e-05
4.40357e-05
4.41028e-05
4.42202e-05
4.43548e-05
4.4464e-05
4.45453e-05
4.46119e-05
4.47412e-05
4.48242e-05
4.4953e-05