/*--------------------------------*- C++ -*----------------------------------*\
| =========                 |                                                 |
| \\      /  F ield         | OpenFOAM: The Open Source CFD Toolbox           |
|  \\    /   O peration     | Version:  2.3.0                                 |
|   \\  /    A nd           | Web:      www.OpenFOAM.org                      |
|    \\/     M anipulation  |                                                 |
\*---------------------------------------------------------------------------*/
FoamFile
{
    version     2.0;
    format      ascii;
    class       volVectorField;
    location    "400";
    object      U;
}
// * * * * * * * * * * * * * * * * * * * * * * * * * * * * * * * * * * * * * //

dimensions      [0 1 -1 0 0 0 0];

internalField   nonuniform List<vector> 
90000
(
(0.00550949 -5.80223e-06 -0.000117108)
(0.00544915 -1.23653e-05 -0.000364737)
(0.00542403 -1.21105e-05 -0.000669117)
(0.00544812 -4.63688e-06 -0.000948839)
(0.00552038 5.27806e-06 -0.00104037)
(0.00556672 5.96722e-06 -0.000830911)
(0.00549225 -4.38839e-06 -0.00047662)
(0.00531958 -1.35191e-05 -0.000397502)
(0.00521599 -1.19501e-05 -0.000616188)
(0.00535307 -2.5992e-06 -0.000852458)
(0.00573511 7.72568e-06 -0.000803849)
(0.0061971 1.43937e-05 -0.000416629)
(0.00655026 1.8721e-05 0.000166738)
(0.00672812 2.3327e-05 0.000726795)
(0.00675107 3.24012e-05 0.00116103)
(0.00663649 3.41832e-05 0.00140151)
(0.00645153 2.6805e-05 0.00142114)
(0.00629256 2.51029e-06 0.00124464)
(0.00624072 -2.08314e-05 0.000952008)
(0.00630729 -3.56551e-05 0.000629147)
(0.00641741 -3.77175e-05 0.000384932)
(0.00646411 -2.9118e-05 0.000267709)
(0.00638626 -1.70072e-05 0.000229315)
(0.00618395 -5.90913e-07 0.000179481)
(0.00591005 1.57991e-05 5.97451e-05)
(0.00564866 2.06152e-05 -9.52622e-05)
(0.00544744 2.31746e-05 -0.000275383)
(0.00532124 2.02047e-05 -0.000492324)
(0.0053187 1.15693e-05 -0.000736334)
(0.00546026 2.23909e-06 -0.000949726)
(0.00568477 -1.46748e-06 -0.00104859)
(0.00588052 1.42689e-06 -0.000988713)
(0.00598071 5.41956e-06 -0.000813215)
(0.00598415 8.01242e-06 -0.000625559)
(0.00593391 7.97532e-06 -0.000507075)
(0.00588296 5.77617e-06 -0.000466334)
(0.00586396 2.3405e-06 -0.000468187)
(0.00586802 9.081e-07 -0.00048449)
(0.00587873 2.58712e-06 -0.000502157)
(0.00589557 4.12011e-06 -0.000494162)
(0.00592223 3.13363e-06 -0.00043875)
(0.00594356 1.0205e-06 -0.000350778)
(0.00594567 4.17181e-07 -0.000258769)
(0.00593509 7.63417e-07 -0.000169452)
(0.00592637 8.47066e-07 -7.52022e-05)
(0.0058992 1.93778e-06 1.87147e-05)
(0.00583256 5.48186e-06 8.56352e-05)
(0.00574639 6.22943e-06 0.000112251)
(0.0056709 3.75233e-06 0.000104328)
(0.00559252 6.28198e-08 4.1717e-05)
(0.0172793 -3.56414e-05 -0.000632098)
(0.0171403 -4.83348e-05 -0.00116926)
(0.0170852 -3.68422e-05 -0.0017097)
(0.0171261 -5.97933e-06 -0.00208935)
(0.0172329 2.258e-05 -0.00208855)
(0.0172687 1.44411e-05 -0.00164762)
(0.0171175 -2.78693e-05 -0.0011128)
(0.0168881 -5.74399e-05 -0.00103198)
(0.0168849 -3.99099e-05 -0.00130324)
(0.017322 3.88437e-06 -0.00142793)
(0.0181032 4.23916e-05 -0.00101589)
(0.0189133 6.09767e-05 -9.9983e-05)
(0.0194867 6.72877e-05 0.00100196)
(0.0197639 7.34394e-05 0.0019424)
(0.0198058 8.01674e-05 0.00256104)
(0.0196663 5.88044e-05 0.0027853)
(0.0194377 -5.7444e-07 0.00262175)
(0.0192258 -9.24822e-05 0.0021629)
(0.0191067 -0.000165932 0.00155849)
(0.0190712 -0.000191136 0.000951073)
(0.0190234 -0.000161012 0.000483762)
(0.0188583 -9.16257e-05 0.000191362)
(0.0185426 -1.21661e-05 -1.60765e-05)
(0.0181152 6.10382e-05 -0.000263726)
(0.0176765 0.000108497 -0.00060332)
(0.0173354 0.000114917 -0.000972055)
(0.0171435 0.000106595 -0.00134444)
(0.0170992 7.61292e-05 -0.00171189)
(0.0172248 3.14835e-05 -0.00203842)
(0.0174948 -4.10184e-06 -0.00224438)
(0.01781 -1.01268e-05 -0.00224257)
(0.0180429 8.6575e-06 -0.00202206)
(0.0181404 2.99865e-05 -0.00168709)
(0.0181194 4.31733e-05 -0.00139586)
(0.0180482 4.45227e-05 -0.00124394)
(0.017993 3.68996e-05 -0.00121401)
(0.0179842 2.56129e-05 -0.00124203)
(0.017998 2.27687e-05 -0.0012866)
(0.0180284 3.03904e-05 -0.00131973)
(0.0180834 3.48284e-05 -0.00128965)
(0.0181539 2.80372e-05 -0.00116433)
(0.0182004 1.71537e-05 -0.000971278)
(0.018206 1.21108e-05 -0.000754844)
(0.0181892 1.06833e-05 -0.000531163)
(0.0181684 8.75133e-06 -0.000307163)
(0.0181075 9.28444e-06 -0.000109427)
(0.0179841 1.39454e-05 2.23551e-05)
(0.0178254 1.19283e-05 6.82e-05)
(0.0176604 -3.27784e-07 1.03891e-05)
(0.0174705 -1.6132e-05 -0.000211276)
(0.0304913 -8.57581e-05 -0.00100065)
(0.0302223 -9.71568e-05 -0.00171919)
(0.0300796 -6.42061e-05 -0.00241389)
(0.0300874 -2.04792e-06 -0.00286794)
(0.0301991 4.26787e-05 -0.00283268)
(0.0302288 1.6714e-05 -0.0022615)
(0.0300095 -6.69622e-05 -0.00157965)
(0.02967 -0.000115298 -0.00142637)
(0.0296149 -6.88953e-05 -0.00168256)
(0.0301257 1.77044e-05 -0.00173589)
(0.031082 8.40548e-05 -0.00112383)
(0.0320906 0.000103155 8.9345e-05)
(0.0328351 9.72637e-05 0.00148866)
(0.0332646 9.46999e-05 0.00264443)
(0.0334458 7.67181e-05 0.00335886)
(0.0334091 8.30288e-06 0.00355908)
(0.0332 -0.000121763 0.00327571)
(0.0328954 -0.000282717 0.00264598)
(0.0325877 -0.000394451 0.00185748)
(0.0323191 -0.000405689 0.00107038)
(0.0320426 -0.00031263 0.000434719)
(0.0316958 -0.00015074 -1.67687e-05)
(0.0312697 2.34931e-05 -0.000382108)
(0.0308072 0.000154892 -0.000791092)
(0.0303926 0.000225057 -0.00128649)
(0.0301197 0.00023433 -0.00178962)
(0.030021 0.000210536 -0.00226033)
(0.0300557 0.000146634 -0.0026811)
(0.0302203 6.28341e-05 -0.00301598)
(0.0304853 2.55993e-06 -0.00318913)
(0.0307737 2.62799e-07 -0.0031179)
(0.0309835 3.90309e-05 -0.00280374)
(0.0310763 7.80901e-05 -0.00237605)
(0.031064 9.89309e-05 -0.00202075)
(0.031011 9.79312e-05 -0.00184533)
(0.0309765 8.25791e-05 -0.00182302)
(0.0309852 6.39268e-05 -0.00187797)
(0.0310088 6.30628e-05 -0.00196474)
(0.0310637 8.1094e-05 -0.0020482)
(0.0311704 9.13584e-05 -0.00205847)
(0.0313047 7.88273e-05 -0.00194582)
(0.031401 5.70755e-05 -0.00172731)
(0.0314404 4.38773e-05 -0.00144271)
(0.0314561 3.58329e-05 -0.00111503)
(0.0314779 2.69928e-05 -0.000774687)
(0.0314722 2.13e-05 -0.000476443)
(0.0314017 1.88972e-05 -0.000265222)
(0.0312707 7.7619e-06 -0.000154488)
(0.0310854 -1.90435e-05 -0.000177789)
(0.03081 -5.25746e-05 -0.000441954)
(0.0452413 -0.00015748 -0.00116401)
(0.0447223 -0.000161388 -0.00206137)
(0.0443858 -9.24502e-05 -0.00299386)
(0.0443223 1.55958e-05 -0.00364281)
(0.0444631 7.82434e-05 -0.00367549)
(0.0445167 2.58864e-05 -0.00300619)
(0.0441835 -0.000111578 -0.00213799)
(0.0435647 -0.000182566 -0.00188995)
(0.0432147 -0.00010148 -0.00220058)
(0.0435821 3.42077e-05 -0.00231655)
(0.0445868 0.000131135 -0.00161337)
(0.0457539 0.000144809 -0.000125272)
(0.0466792 0.00011114 0.00164082)
(0.0473088 8.66403e-05 0.00313345)
(0.047699 2.96806e-05 0.00407799)
(0.0478224 -9.86799e-05 0.00436025)
(0.0476254 -0.000309479 0.00400792)
(0.0471402 -0.000554491 0.00321508)
(0.046516 -0.00071135 0.0022513)
(0.0459186 -0.000703009 0.0013208)
(0.0453949 -0.000530164 0.000572221)
(0.0449266 -0.000252994 1.86109e-05)
(0.0445009 3.61173e-05 -0.000457044)
(0.0441151 0.000232985 -0.00099238)
(0.0438171 0.000337778 -0.0016296)
(0.0436797 0.000361663 -0.00227511)
(0.0437095 0.000325414 -0.0028738)
(0.0438255 0.000228292 -0.00339671)
(0.0440052 0.000103488 -0.0038001)
(0.0442317 1.7102e-05 -0.00400339)
(0.0444641 1.75995e-05 -0.00391529)
(0.0446378 7.71179e-05 -0.00353323)
(0.0447306 0.000133031 -0.00300533)
(0.0447438 0.000158455 -0.00255621)
(0.0447275 0.000151585 -0.00232244)
(0.0447285 0.000125802 -0.00227578)
(0.0447609 9.82698e-05 -0.00233173)
(0.0447893 0.00010061 -0.00245034)
(0.044856 0.000134673 -0.00260166)
(0.04501 0.000159462 -0.00270536)
(0.0452226 0.000150451 -0.00269852)
(0.0454042 0.000124958 -0.00257995)
(0.0455305 0.000105729 -0.00234974)
(0.0456497 8.72158e-05 -0.00199346)
(0.0458038 6.31612e-05 -0.00154988)
(0.045971 4.41769e-05 -0.00112737)
(0.046095 3.13112e-05 -0.000801178)
(0.0461455 3.84906e-06 -0.00055837)
(0.0460664 -4.75676e-05 -0.000420325)
(0.0457467 -0.000108738 -0.000570381)
(0.061499 -0.000259989 -0.00110451)
(0.0605703 -0.000258295 -0.00215892)
(0.0598123 -0.000139565 -0.00346894)
(0.0595524 4.2561e-05 -0.00453841)
(0.0597627 0.000139857 -0.00483154)
(0.0599668 5.5871e-05 -0.00414553)
(0.0595945 -0.000147487 -0.00306788)
(0.0586154 -0.000248669 -0.0027111)
(0.0577595 -0.000126357 -0.00317849)
(0.0577653 6.84391e-05 -0.003536)
(0.0586854 0.000199328 -0.00285293)
(0.0599575 0.000204863 -0.00103427)
(0.061025 0.000124181 0.00132515)
(0.0617941 6.00633e-05 0.00348514)
(0.062364 -4.93119e-05 0.00500939)
(0.0626669 -0.000246799 0.00564416)
(0.0624983 -0.000554492 0.00532017)
(0.0617652 -0.000905477 0.00427375)
(0.0606463 -0.00113061 0.00296841)
(0.0595021 -0.00111786 0.00179678)
(0.0585737 -0.000864171 0.000952659)
(0.0579296 -0.000456326 0.000378664)
(0.0575388 -2.46752e-05 -0.000130025)
(0.0573189 0.000268282 -0.000748056)
(0.057242 0.000423131 -0.00152159)
(0.0573425 0.000475369 -0.00233367)
(0.0575947 0.000433434 -0.00311186)
(0.0578767 0.000307334 -0.00381332)
(0.0581371 0.000142202 -0.00436907)
(0.0583662 2.80558e-05 -0.00467721)
(0.0585556 2.95551e-05 -0.00463137)
(0.0586894 0.000109961 -0.00421298)
(0.0587777 0.000181158 -0.00357958)
(0.0588218 0.000207529 -0.00300645)
(0.0588588 0.00019064 -0.00268216)
(0.0589206 0.000150507 -0.00258015)
(0.0590009 0.000109175 -0.00259621)
(0.0590393 0.000110208 -0.00269785)
(0.0590957 0.000160216 -0.00287044)
(0.0592622 0.000204637 -0.00302897)
(0.05952 0.000209172 -0.00312454)
(0.0597646 0.000196345 -0.00319442)
(0.0599802 0.000189913 -0.00320698)
(0.060246 0.000172258 -0.0030263)
(0.0606101 0.00013107 -0.00260168)
(0.061067 9.02509e-05 -0.00208413)
(0.0615583 5.8097e-05 -0.00163338)
(0.0620274 4.46688e-06 -0.00122287)
(0.0623256 -8.49629e-05 -0.000808454)
(0.0621629 -0.000187022 -0.000645678)
(0.0788441 -0.000405937 -0.0007677)
(0.07759 -0.000414697 -0.00172323)
(0.0761166 -0.000246248 -0.00342958)
(0.0752627 3.55625e-05 -0.00519696)
(0.0753704 0.000204046 -0.00610346)
(0.0758389 0.000103822 -0.0056268)
(0.0756615 -0.00016953 -0.00437563)
(0.0744511 -0.000309795 -0.00389008)
(0.0730213 -0.000133788 -0.00466104)
(0.0725101 0.000150602 -0.00563326)
(0.0732566 0.000326274 -0.00537813)
(0.0746742 0.000314852 -0.00343372)
(0.0759508 0.000167817 -0.000368574)
(0.0767702 5.27701e-05 0.00288988)
(0.0773149 -0.000144001 0.0056524)
(0.077619 -0.000433146 0.0073691)
(0.0774081 -0.000849011 0.00761634)
(0.0764065 -0.00132645 0.00643847)
(0.074676 -0.00165642 0.00450672)
(0.0727019 -0.00167932 0.00269184)
(0.0710212 -0.0013713 0.00151692)
(0.0699327 -0.000828929 0.000914789)
(0.0694542 -0.000223724 0.000466674)
(0.069407 0.000230469 -0.000156881)
(0.0696451 0.000470806 -0.0010374)
(0.0700907 0.000577313 -0.00201359)
(0.0706672 0.000538555 -0.00297731)
(0.07122 0.000382278 -0.00388208)
(0.07167 0.00017153 -0.00463181)
(0.0720072 2.06e-05 -0.00508569)
(0.0722356 1.58162e-05 -0.00512202)
(0.0723757 0.00011401 -0.00470716)
(0.0724852 0.000199081 -0.00398742)
(0.0725865 0.000224258 -0.00327973)
(0.0727137 0.000195011 -0.00285149)
(0.0728908 0.000139639 -0.0026967)
(0.0730916 8.1365e-05 -0.00267364)
(0.0732062 7.30308e-05 -0.00274304)
(0.0732807 0.000132584 -0.00290481)
(0.0734572 0.000194748 -0.00303879)
(0.0737349 0.000210276 -0.00307464)
(0.0739727 0.000211979 -0.00317019)
(0.0741578 0.000236269 -0.00343118)
(0.0744531 0.000249841 -0.00364868)
(0.0749517 0.000215291 -0.00353996)
(0.0756673 0.000159804 -0.00314841)
(0.076575 0.000106968 -0.00271116)
(0.0776575 2.04231e-05 -0.0022245)
(0.0787271 -0.000124906 -0.00151268)
(0.079242 -0.000290903 -0.000804356)
(0.0955224 -0.000607594 -0.000499736)
(0.0948052 -0.000654557 -0.000703395)
(0.092935 -0.000457806 -0.00232978)
(0.0911355 -7.5521e-05 -0.0047824)
(0.0905902 0.000197837 -0.00667844)
(0.0910594 0.000117869 -0.00681342)
(0.0911705 -0.000219107 -0.00553062)
(0.0899198 -0.000412617 -0.00483463)
(0.0879259 -0.000185452 -0.00591775)
(0.086748 0.000243844 -0.00793001)
(0.0872288 0.000532987 -0.00893677)
(0.0889638 0.000541041 -0.00778963)
(0.0909249 0.000328203 -0.00470639)
(0.0922857 8.57915e-05 -0.000547707)
(0.0928156 -0.0002015 0.00388712)
(0.0926968 -0.000605105 0.00776375)
(0.0919065 -0.0011453 0.0100166)
(0.0903145 -0.00175173 0.00987509)
(0.0879006 -0.00221511 0.00768244)
(0.0850171 -0.00234271 0.00481813)
(0.0823175 -0.0020601 0.0026579)
(0.080397 -0.00143983 0.00161498)
(0.0795057 -0.00066514 0.00115358)
(0.0794715 1.98585e-05 0.000595279)
(0.0800362 0.000454446 -0.000343679)
(0.0809165 0.000695156 -0.00150048)
(0.0818779 0.000714106 -0.00266723)
(0.0827188 0.000533781 -0.00376315)
(0.0833643 0.000253885 -0.00467608)
(0.0838379 3.20628e-05 -0.00522905)
(0.0841646 -1.27204e-05 -0.00529344)
(0.0843742 7.68837e-05 -0.00485431)
(0.0845614 0.000159925 -0.00404888)
(0.0847861 0.000175809 -0.0031995)
(0.0850876 0.000129354 -0.00264865)
(0.0854801 5.85627e-05 -0.00244226)
(0.0859325 -1.36168e-05 -0.00239995)
(0.0862845 -3.64964e-05 -0.00246629)
(0.0865127 2.449e-05 -0.0026844)
(0.0867908 0.000107139 -0.00289416)
(0.0871825 0.000138614 -0.00285927)
(0.0874998 0.000146342 -0.00271924)
(0.0876418 0.000187555 -0.00284455)
(0.0878176 0.000236054 -0.00325903)
(0.0882199 0.000231892 -0.00357137)
(0.088899 0.000188392 -0.00358019)
(0.0898782 0.000139469 -0.0034808)
(0.091284 4.15188e-05 -0.00329646)
(0.0931192 -0.000160397 -0.00264214)
(0.0947828 -0.000414881 -0.00144429)
(0.108427 -0.000856991 -0.00100641)
(0.109255 -0.000999933 -6.59882e-06)
(0.108323 -0.000816876 -0.000617443)
(0.106329 -0.000347076 -0.00298966)
(0.105016 5.6379e-05 -0.00574104)
(0.105063 4.12109e-05 -0.00682396)
(0.105267 -0.000329828 -0.00577939)
(0.104039 -0.000592191 -0.00476486)
(0.101398 -0.000376614 -0.00582349)
(0.0990935 0.000163472 -0.00872524)
(0.0986977 0.000608581 -0.0114047)
(0.100353 0.000733056 -0.0121009)
(0.103239 0.00058816 -0.0105156)
(0.106297 0.000311371 -0.00716467)
(0.108435 -3.39893e-05 -0.00237992)
(0.108706 -0.000522518 0.00339426)
(0.106981 -0.00116928 0.00884721)
(0.103769 -0.00190559 0.0119849)
(0.0998081 -0.00250613 0.0116455)
(0.095654 -0.0028046 0.00871522)
(0.0918245 -0.00268935 0.00536342)
(0.0888952 -0.00216962 0.0031536)
(0.0872903 -0.001369 0.00211662)
(0.0869598 -0.000515478 0.00144423)
(0.08768 0.000186223 0.000485874)
(0.0890251 0.000710868 -0.00083018)
(0.0904952 0.000972572 -0.00227634)
(0.0916839 0.00089837 -0.00364917)
(0.0924681 0.000580323 -0.00474034)
(0.0929397 0.000238574 -0.00531805)
(0.0932255 7.16245e-05 -0.00527317)
(0.0934116 7.23211e-05 -0.00466739)
(0.0936313 9.03777e-05 -0.00369047)
(0.0939847 5.51384e-05 -0.00266225)
(0.0945228 -3.70879e-05 -0.00196092)
(0.0952311 -0.000136086 -0.00168883)
(0.0960621 -0.000219984 -0.00161662)
(0.096834 -0.000256086 -0.00163627)
(0.0974278 -0.000209982 -0.00187918)
(0.0979582 -0.000119876 -0.00228557)
(0.0985855 -6.00721e-05 -0.00247002)
(0.0991751 -2.30073e-05 -0.00229135)
(0.0995283 4.35128e-05 -0.00211299)
(0.0997759 0.000118165 -0.00228052)
(0.100156 0.000134612 -0.00261803)
(0.100714 9.36857e-05 -0.00282482)
(0.101427 5.80341e-05 -0.00303459)
(0.10248 -2.2017e-05 -0.00338096)
(0.104214 -0.000234517 -0.00340767)
(0.106417 -0.00055286 -0.00251385)
(0.116524 -0.00109541 -0.00165129)
(0.118292 -0.00138368 -0.000196058)
(0.11887 -0.00132111 0.000387125)
(0.117951 -0.000849001 -0.00102376)
(0.116778 -0.000304303 -0.0038316)
(0.11666 -0.000177157 -0.00566701)
(0.117081 -0.000504815 -0.00500988)
(0.116292 -0.00080658 -0.00358741)
(0.113482 -0.000634039 -0.00417393)
(0.109983 -5.25811e-05 -0.00736583)
(0.107916 0.000481667 -0.0112241)
(0.108132 0.000635823 -0.0135299)
(0.110391 0.000481072 -0.0136832)
(0.114231 0.000272639 -0.0124028)
(0.118996 0.000104848 -0.00987962)
(0.122952 -0.000143058 -0.00533643)
(0.12353 -0.000663564 0.00139617)
(0.119719 -0.00141126 0.00828918)
(0.113126 -0.00214009 0.0122249)
(0.105995 -0.00264473 0.0119523)
(0.0998555 -0.00278315 0.00906275)
(0.0953441 -0.00253106 0.0060177)
(0.0927116 -0.00195765 0.00396386)
(0.0918273 -0.00121077 0.00265928)
(0.0924258 -0.000420248 0.00146402)
(0.094017 0.000379433 4.59211e-05)
(0.0959547 0.00104728 -0.00159726)
(0.0976115 0.00133832 -0.0033015)
(0.0986684 0.00120102 -0.00470945)
(0.099143 0.000827017 -0.00540475)
(0.0992477 0.00049193 -0.00520767)
(0.09922 0.000290081 -0.00430068)
(0.0993169 0.000128206 -0.00301986)
(0.0997025 -4.39175e-05 -0.00173933)
(0.100443 -0.000246844 -0.000853678)
(0.101483 -0.000419842 -0.000511706)
(0.102729 -0.00053748 -0.000443599)
(0.103976 -0.000591298 -0.000404868)
(0.105056 -0.000571266 -0.000532756)
(0.10596 -0.000500863 -0.000963482)
(0.106856 -0.000439438 -0.00139626)
(0.107713 -0.000380688 -0.00148312)
(0.108364 -0.000272937 -0.0013374)
(0.108883 -0.000140863 -0.00133697)
(0.109538 -7.04035e-05 -0.0015163)
(0.110339 -9.7405e-05 -0.00160097)
(0.111099 -0.00014592 -0.00169091)
(0.111816 -0.000222577 -0.00210692)
(0.112895 -0.000411055 -0.00266992)
(0.114506 -0.000717942 -0.00264709)
(0.12155 -0.00129806 -0.00124572)
(0.122937 -0.00166231 -0.000192907)
(0.124004 -0.0017669 0.000768182)
(0.124094 -0.00144654 0.000168508)
(0.123558 -0.000889839 -0.00226532)
(0.123575 -0.000622927 -0.00448425)
(0.124382 -0.000827764 -0.00420418)
(0.124631 -0.0011135 -0.00228365)
(0.122917 -0.000985428 -0.00185185)
(0.119545 -0.000365026 -0.00454584)
(0.116525 0.000322852 -0.00898216)
(0.115196 0.000611771 -0.0124392)
(0.115632 0.000406036 -0.0135214)
(0.117633 -3.81784e-05 -0.01308)
(0.121557 -0.000408414 -0.0124075)
(0.12768 -0.000540811 -0.0112239)
(0.133998 -0.000520478 -0.00748537)
(0.135696 -0.000641792 -0.000435131)
(0.130081 -0.00112371 0.00698867)
(0.119791 -0.00176867 0.0110394)
(0.109293 -0.00225799 0.0109597)
(0.10143 -0.00232919 0.00874116)
(0.0967901 -0.002036 0.00633398)
(0.0947673 -0.00158767 0.00436335)
(0.0948561 -0.00102293 0.00266833)
(0.0964026 -0.000219555 0.00103232)
(0.0985664 0.000747886 -0.000679575)
(0.100553 0.00152853 -0.0025394)
(0.101933 0.0018261 -0.00423881)
(0.102583 0.00166952 -0.00518366)
(0.102646 0.00128933 -0.00498742)
(0.10244 0.000858846 -0.00383205)
(0.102387 0.000408703 -0.00221301)
(0.102764 -5.2589e-06 -0.000641272)
(0.103686 -0.000393178 0.000444075)
(0.105042 -0.000679548 0.000858149)
(0.106695 -0.000868166 0.000871829)
(0.108386 -0.000969061 0.000873951)
(0.109932 -0.000984378 0.000841847)
(0.111241 -0.000943088 0.000535926)
(0.112434 -0.000898942 7.50893e-05)
(0.113474 -0.000858266 -0.000178942)
(0.114229 -0.000761142 -0.00016898)
(0.114784 -0.000596185 -0.000196258)
(0.115544 -0.00044432 -0.000388732)
(0.116627 -0.000393686 -0.000467514)
(0.11774 -0.000433944 -0.000403698)
(0.118597 -0.000527671 -0.000572224)
(0.119402 -0.000703817 -0.00109957)
(0.12034 -0.000950401 -0.00151535)
(0.124837 -0.00152082 -0.000352933)
(0.125392 -0.00186905 0.000322367)
(0.126008 -0.00207781 0.0012549)
(0.126336 -0.00191553 0.00099651)
(0.126227 -0.00144279 -0.00122144)
(0.126242 -0.00111119 -0.00376189)
(0.126946 -0.00123101 -0.00399664)
(0.127726 -0.00152513 -0.0018421)
(0.127365 -0.00150433 -0.000208039)
(0.125379 -0.000926804 -0.00167217)
(0.123059 -8.3775e-05 -0.00593605)
(0.121749 0.000498031 -0.0102654)
(0.121595 0.000576537 -0.0121438)
(0.12207 0.000242856 -0.0116134)
(0.123186 -0.00047308 -0.01064)
(0.126283 -0.00123287 -0.0107236)
(0.133141 -0.00145516 -0.0107581)
(0.141466 -0.000936487 -0.00761505)
(0.143838 -0.000398842 -0.000735834)
(0.136203 -0.000500023 0.0061518)
(0.122737 -0.00117003 0.00966285)
(0.109947 -0.00173533 0.00976384)
(0.101536 -0.00178863 0.00815047)
(0.0973327 -0.00157615 0.00607031)
(0.0961673 -0.00133417 0.00399308)
(0.0971469 -0.000806492 0.00207196)
(0.0992615 0.000189203 0.00028557)
(0.101436 0.00136702 -0.00157001)
(0.103075 0.00220549 -0.00339443)
(0.104001 0.00248391 -0.00457367)
(0.104275 0.00226706 -0.00452132)
(0.104164 0.00170837 -0.00329893)
(0.104155 0.000956851 -0.00147121)
(0.104595 0.000234311 0.000332795)
(0.105667 -0.000377761 0.00160427)
(0.107285 -0.000800792 0.00209131)
(0.109322 -0.00107565 0.00203777)
(0.111457 -0.00124525 0.00192196)
(0.113436 -0.00133033 0.00186229)
(0.115115 -0.00134791 0.00162096)
(0.116641 -0.00131614 0.00118181)
(0.117954 -0.00126881 0.000872319)
(0.118839 -0.00120221 0.000851827)
(0.119273 -0.00108286 0.000872261)
(0.11977 -0.000914316 0.000713605)
(0.120679 -0.000786342 0.000606642)
(0.121823 -0.000775343 0.000689556)
(0.122796 -0.000877482 0.000652331)
(0.123605 -0.00104994 0.000251037)
(0.124277 -0.00124708 -0.000260867)
(0.127546 -0.00162836 0.000278621)
(0.127423 -0.00195526 0.000677402)
(0.127158 -0.00229926 0.00158097)
(0.127054 -0.00229282 0.00162887)
(0.127152 -0.00191219 -0.000347988)
(0.127319 -0.00150318 -0.00317933)
(0.12773 -0.00151961 -0.004131)
(0.128198 -0.00182384 -0.00225727)
(0.128204 -0.00195171 0.00025185)
(0.127145 -0.00160604 0.000300257)
(0.125631 -0.000856235 -0.00313865)
(0.125123 -3.03309e-06 -0.00806675)
(0.126071 0.000532658 -0.0111668)
(0.12737 0.000606465 -0.0107656)
(0.127868 4.58906e-05 -0.00841801)
(0.1278 -0.00113921 -0.00719588)
(0.129997 -0.00227761 -0.00830679)
(0.137532 -0.00214297 -0.00925134)
(0.14658 -0.000741742 -0.00624153)
(0.147515 0.000393136 0.000320002)
(0.137429 0.0002037 0.0063191)
(0.122329 -0.000736352 0.00918945)
(0.109479 -0.00125042 0.00916399)
(0.101713 -0.00128439 0.00752141)
(0.0982424 -0.001308 0.00530437)
(0.0977612 -0.00118205 0.00314072)
(0.0992051 -0.000416735 0.00124645)
(0.10131 0.000956335 -0.000581479)
(0.103185 0.00231601 -0.00242265)
(0.104525 0.00314326 -0.00378227)
(0.105358 0.00324781 -0.00398542)
(0.105824 0.00270325 -0.00293595)
(0.10628 0.00175176 -0.0011349)
(0.106948 0.000753422 0.000778613)
(0.108046 -5.86433e-05 0.00223367)
(0.109625 -0.000629781 0.00287355)
(0.111702 -0.000989021 0.0028391)
(0.11402 -0.0012152 0.00263498)
(0.116287 -0.00138748 0.00249733)
(0.11826 -0.00152498 0.00223328)
(0.1201 -0.00157142 0.00171923)
(0.1218 -0.00152559 0.001248)
(0.123072 -0.00145181 0.00110622)
(0.123683 -0.00136123 0.00114988)
(0.124056 -0.00120485 0.00110039)
(0.124666 -0.00103856 0.00108795)
(0.125486 -0.000992741 0.0012747)
(0.12617 -0.0011191 0.00139095)
(0.126758 -0.0013053 0.00113269)
(0.127275 -0.00144764 0.000603856)
(0.130439 -0.00148102 0.000561594)
(0.130239 -0.00169247 0.000677452)
(0.129274 -0.00217601 0.00138991)
(0.128108 -0.00246377 0.00174814)
(0.127816 -0.00224383 0.000404894)
(0.128409 -0.00179013 -0.00226588)
(0.129139 -0.00172798 -0.0040063)
(0.129266 -0.00207034 -0.00319843)
(0.128743 -0.00222311 -0.000706129)
(0.127811 -0.00186069 0.000802251)
(0.126536 -0.00137263 -0.000897846)
(0.125728 -0.00101301 -0.00544893)
(0.127083 -0.000478516 -0.010043)
(0.130389 0.000409381 -0.0115937)
(0.133176 0.000913713 -0.00913939)
(0.133438 0.000105688 -0.00541806)
(0.132075 -0.0019097 -0.00435087)
(0.13379 -0.00327629 -0.00640713)
(0.141856 -0.00207411 -0.00762635)
(0.149816 0.000497953 -0.00436916)
(0.147865 0.0016924 0.00190309)
(0.135646 0.000965049 0.00721182)
(0.120686 -7.00041e-05 0.00943619)
(0.109341 -0.000509458 0.00886231)
(0.102949 -0.000781663 0.00677786)
(0.100243 -0.00110097 0.00437547)
(0.100153 -0.000825458 0.00225896)
(0.101596 0.000409336 0.000378127)
(0.103536 0.00209069 -0.001497)
(0.105418 0.00344035 -0.00309469)
(0.10715 0.00394653 -0.00372449)
(0.108647 0.00355527 -0.00315046)
(0.109974 0.00258088 -0.00170483)
(0.111129 0.00148318 8.80521e-05)
(0.112273 0.000600329 0.00167163)
(0.113537 -2.15906e-05 0.00259743)
(0.115161 -0.00041215 0.00283262)
(0.117103 -0.000659337 0.00279964)
(0.119166 -0.000906431 0.0027947)
(0.121047 -0.00119999 0.00265895)
(0.122859 -0.001427 0.00215218)
(0.124691 -0.00149086 0.00146048)
(0.126315 -0.00145497 0.00098448)
(0.127356 -0.00138526 0.000781235)
(0.128039 -0.00121474 0.00063181)
(0.128809 -0.00095041 0.000609026)
(0.129651 -0.000807688 0.00087121)
(0.130077 -0.000943522 0.00119026)
(0.130138 -0.00123048 0.00122761)
(0.130218 -0.00141136 0.000924467)
(0.133223 -0.00108582 0.000372791)
(0.133295 -0.00116275 0.000489809)
(0.13281 -0.00156097 0.000960813)
(0.131182 -0.00211405 0.00127412)
(0.129625 -0.002267 0.000549951)
(0.129635 -0.00188467 -0.00124344)
(0.130967 -0.00163382 -0.00294704)
(0.131866 -0.00203889 -0.00338977)
(0.131136 -0.0025533 -0.00230315)
(0.12957 -0.00226196 -0.000641646)
(0.128342 -0.00132854 -0.000352113)
(0.127347 -0.00086973 -0.00281545)
(0.127147 -0.00123937 -0.00709598)
(0.129667 -0.00133003 -0.0106492)
(0.134589 -0.000443296 -0.010978)
(0.138462 0.000510777 -0.00766691)
(0.138586 5.76668e-05 -0.00378152)
(0.136319 -0.00188393 -0.00323018)
(0.137906 -0.00283786 -0.00548273)
(0.145835 -0.000964438 -0.00615314)
(0.151669 0.00171916 -0.00257477)
(0.146594 0.00260448 0.00333737)
(0.13317 0.00190306 0.00798588)
(0.119718 0.00114567 0.00958955)
(0.110758 0.000542294 0.00850088)
(0.105811 -0.00020262 0.00607186)
(0.103631 -0.000584569 0.00351616)
(0.103536 0.000167202 0.00132515)
(0.104914 0.00184556 -0.00062553)
(0.107135 0.00353796 -0.00238003)
(0.109761 0.00436572 -0.00349462)
(0.11231 0.00412224 -0.00363014)
(0.114522 0.00321586 -0.00290033)
(0.116239 0.00220262 -0.00162479)
(0.117561 0.00143521 -0.000232105)
(0.118636 0.000938208 0.000834724)
(0.119813 0.000643715 0.00137993)
(0.121242 0.000446034 0.00168339)
(0.122843 0.000161875 0.00207065)
(0.124304 -0.000272268 0.00242694)
(0.125677 -0.000697988 0.00238826)
(0.127162 -0.000956166 0.00188735)
(0.128648 -0.00106912 0.00124507)
(0.12976 -0.00113451 0.000693692)
(0.130615 -0.0010601 0.000210725)
(0.131699 -0.000739267 -8.28676e-05)
(0.133067 -0.00036727 -1.38397e-05)
(0.133976 -0.000275081 0.000276521)
(0.133998 -0.000551575 0.000483355)
(0.133455 -0.000922134 0.000485394)
(0.13642 -0.000178398 -0.000400284)
(0.135934 -0.000360697 -0.000135727)
(0.135956 -0.000726187 0.000511666)
(0.135523 -0.00136885 0.000901092)
(0.134163 -0.00187451 0.000224593)
(0.132886 -0.00177683 -0.00118038)
(0.133043 -0.00138629 -0.0021808)
(0.134224 -0.00150503 -0.0023776)
(0.134615 -0.00225321 -0.00224355)
(0.13317 -0.00268559 -0.00206599)
(0.131199 -0.00193701 -0.00191395)
(0.130033 -0.000698825 -0.00246123)
(0.129799 -0.000369351 -0.00432404)
(0.130694 -0.00124245 -0.00714729)
(0.133591 -0.0019518 -0.00930236)
(0.137906 -0.00141333 -0.00890448)
(0.140811 -0.000342893 -0.00568903)
(0.140665 -0.000193216 -0.00240172)
(0.139395 -0.00125862 -0.00229382)
(0.142202 -0.00154948 -0.00452095)
(0.149546 0.000153053 -0.00505024)
(0.152129 0.00228998 -0.00180035)
(0.144026 0.00307358 0.00391359)
(0.131205 0.00286775 0.0088369)
(0.121324 0.00240398 0.0105734)
(0.115709 0.0016104 0.00911038)
(0.112518 0.000642276 0.00583091)
(0.110654 0.000444452 0.00208625)
(0.110271 0.00149151 -0.00126125)
(0.111611 0.0030948 -0.00384288)
(0.114215 0.00412072 -0.00550749)
(0.11705 0.00412348 -0.00609779)
(0.119365 0.00351134 -0.00571657)
(0.120956 0.00287558 -0.00460388)
(0.122039 0.00249632 -0.00313938)
(0.12282 0.00227833 -0.00177938)
(0.123654 0.00211378 -0.000875017)
(0.124809 0.00191686 -0.000295652)
(0.12623 0.00155259 0.000345471)
(0.127546 0.000955099 0.00111786)
(0.128663 0.000326694 0.0017188)
(0.129786 -0.00010458 0.00187851)
(0.130946 -0.000365425 0.0016334)
(0.131823 -0.000581884 0.00113502)
(0.132435 -0.000696544 0.000470018)
(0.1333 -0.000522791 -0.000124987)
(0.134767 -0.000103202 -0.000378258)
(0.136356 0.00027546 -0.000334075)
(0.137321 0.000323808 -0.0002643)
(0.137169 7.9429e-05 -0.000314974)
(0.139981 0.000747104 -0.00105242)
(0.139531 0.000779283 -0.00122781)
(0.1392 0.000478864 -0.000675817)
(0.139054 -0.000302385 0.00022819)
(0.138732 -0.00115429 0.000228753)
(0.138154 -0.00147241 -0.00105668)
(0.137797 -0.00120124 -0.00239035)
(0.137885 -0.00100836 -0.00257871)
(0.137755 -0.00145186 -0.00193963)
(0.13669 -0.00216151 -0.00161837)
(0.134941 -0.00222895 -0.00213108)
(0.133583 -0.00132835 -0.00333243)
(0.133092 -0.000259402 -0.00465815)
(0.133432 -0.000193301 -0.00559565)
(0.134664 -0.00120496 -0.00610174)
(0.137064 -0.00197492 -0.00618185)
(0.139905 -0.00140298 -0.00536642)
(0.1415 -0.000323988 -0.00359569)
(0.141688 -0.000215332 -0.00195483)
(0.142519 -0.000909419 -0.00200626)
(0.146456 -0.000630802 -0.00346993)
(0.15145 0.00125246 -0.00374191)
(0.150883 0.00303214 -0.00104139)
(0.142954 0.00347002 0.00367322)
(0.133374 0.00300715 0.00823551)
(0.127294 0.00220423 0.0110562)
(0.12505 0.00125714 0.0113195)
(0.124605 0.000671928 0.008769)
(0.124754 0.00100909 0.00417701)
(0.125533 0.00191389 -0.000788973)
(0.126925 0.00258631 -0.0047048)
(0.128066 0.00260182 -0.00694816)
(0.128252 0.0023685 -0.00775089)
(0.127662 0.00245592 -0.00752624)
(0.126904 0.00290545 -0.00657739)
(0.126362 0.00335419 -0.00516224)
(0.126342 0.00357412 -0.00369322)
(0.127054 0.00350432 -0.00242857)
(0.128389 0.00307663 -0.0012697)
(0.129875 0.00228917 -0.000126977)
(0.13116 0.0013671 0.000875046)
(0.132253 0.000641288 0.00150814)
(0.133251 0.000188764 0.00170725)
(0.133989 -0.000117617 0.00154182)
(0.134414 -0.000321489 0.00106737)
(0.134869 -0.000303962 0.000446264)
(0.135814 -1.12907e-05 -8.1105e-05)
(0.137241 0.000394896 -0.000364106)
(0.138812 0.000642055 -0.000488865)
(0.139841 0.000695691 -0.000671233)
(0.141573 0.000884801 -0.00117896)
(0.142246 0.00123323 -0.00181971)
(0.142822 0.00134476 -0.00205505)
(0.143144 0.000850668 -0.00144343)
(0.142989 -6.67707e-05 -0.000702394)
(0.142622 -0.0007774 -0.000963872)
(0.142582 -0.000845028 -0.00212969)
(0.142856 -0.000630301 -0.00302234)
(0.14257 -0.000785338 -0.00284138)
(0.141067 -0.00141243 -0.00207312)
(0.138751 -0.00186021 -0.00179891)
(0.136843 -0.00143163 -0.00274732)
(0.136173 -0.000297871 -0.00447725)
(0.136522 0.000360018 -0.00575904)
(0.137119 -0.000240195 -0.00574606)
(0.137821 -0.00139227 -0.00470572)
(0.139082 -0.00158524 -0.00346635)
(0.140847 -0.000517752 -0.00252388)
(0.142433 0.000308212 -0.00202154)
(0.143711 -0.000165882 -0.00188058)
(0.145635 -0.00083965 -0.00204096)
(0.148583 -3.66728e-06 -0.00240486)
(0.150547 0.00209444 -0.00205276)
(0.14923 0.00375647 -0.000145855)
(0.145196 0.00385317 0.00303507)