/*--------------------------------*- C++ -*----------------------------------*\
| =========                 |                                                 |
| \\      /  F ield         | OpenFOAM: The Open Source CFD Toolbox           |
|  \\    /   O peration     | Version:  2.3.0                                 |
|   \\  /    A nd           | Web:      www.OpenFOAM.org                      |
|    \\/     M anipulation  |                                                 |
\*---------------------------------------------------------------------------*/
FoamFile
{
    version     2.0;
    format      ascii;
    class       volVectorField;
    location    "400";
    object      U_0;
}
// * * * * * * * * * * * * * * * * * * * * * * * * * * * * * * * * * * * * * //

dimensions      [0 1 -1 0 0 0 0];

internalField   nonuniform List<vector> 
90000
(
(0.00550213 -6.69144e-06 -0.000132803)
(0.00544334 -1.27261e-05 -0.000388797)
(0.00542106 -1.15502e-05 -0.000694424)
(0.00544956 -3.57248e-06 -0.000960049)
(0.00552351 5.64761e-06 -0.00102342)
(0.00556301 5.01261e-06 -0.000791943)
(0.00547683 -5.53657e-06 -0.000452509)
(0.00530153 -1.36676e-05 -0.000412665)
(0.00521661 -1.05558e-05 -0.000648372)
(0.00538313 -7.96068e-07 -0.000860728)
(0.00578235 8.69147e-06 -0.00077038)
(0.00623889 1.49086e-05 -0.000352041)
(0.00657391 1.98765e-05 0.000233577)
(0.00673347 2.43435e-05 0.000782343)
(0.00674001 3.26172e-05 0.00119358)
(0.00661444 3.32962e-05 0.00140706)
(0.00642943 2.45184e-05 0.0013998)
(0.00628179 -7.88832e-07 0.00120519)
(0.00624811 -2.33452e-05 0.000907308)
(0.0063259 -3.64841e-05 0.000590221)
(0.00643166 -3.69065e-05 0.000363633)
(0.00646109 -2.74259e-05 0.00026103)
(0.00636497 -1.58581e-05 0.000225284)
(0.00615011 1.65526e-06 0.000165676)
(0.00587484 1.68692e-05 3.75437e-05)
(0.00562056 2.09702e-05 -0.000120198)
(0.00542679 2.27846e-05 -0.000305297)
(0.00531333 1.91972e-05 -0.00053009)
(0.00533183 1.00448e-05 -0.000776135)
(0.0054924 1.23391e-06 -0.000977556)
(0.00572012 -1.44699e-06 -0.00105185)
(0.00590341 2.13935e-06 -0.00096789)
(0.00598693 5.94807e-06 -0.000781691)
(0.00597888 8.13736e-06 -0.00059911)
(0.00592519 7.64946e-06 -0.000492071)
(0.00587708 5.27787e-06 -0.00046101)
(0.00586239 1.94879e-06 -0.00046694)
(0.00586845 9.13082e-07 -0.000483773)
(0.00587912 2.79073e-06 -0.000499752)
(0.00589563 4.18225e-06 -0.000488033)
(0.0059214 2.98139e-06 -0.000429534)
(0.00594075 9.08914e-07 -0.000341505)
(0.00594129 4.34691e-07 -0.0002511)
(0.00593115 7.9118e-07 -0.000162726)
(0.00592296 9.3557e-07 -6.88212e-05)
(0.00589351 2.22431e-06 2.28278e-05)
(0.00582458 5.69593e-06 8.60762e-05)
(0.00573954 6.04779e-06 0.000110254)
(0.00566525 3.21187e-06 0.000101837)
(0.00558557 -7.5091e-07 3.45758e-05)
(0.0172593 -3.79772e-05 -0.000669943)
(0.0171238 -4.82452e-05 -0.00121226)
(0.017076 -3.3933e-05 -0.00174205)
(0.0171251 -2.15865e-06 -0.00208874)
(0.0172325 2.27628e-05 -0.00204294)
(0.0172554 9.85404e-06 -0.00157972)
(0.01709 -3.21756e-05 -0.00107866)
(0.0168692 -5.65409e-05 -0.00104974)
(0.0169067 -3.41903e-05 -0.0013276)
(0.0173901 9.54876e-06 -0.00140066)
(0.0181896 4.47197e-05 -0.000924107)
(0.0189819 6.05353e-05 2.67562e-05)
(0.0195228 6.75585e-05 0.0011153)
(0.0197713 7.33185e-05 0.00202023)
(0.0197913 7.73689e-05 0.00258976)
(0.0196389 5.15386e-05 0.00276442)
(0.0194103 -1.17245e-05 0.00255906)
(0.0192093 -0.000104047 0.0020774)
(0.0191058 -0.000172243 0.00147153)
(0.0190753 -0.000189764 0.000879306)
(0.0190153 -0.000153293 0.00043872)
(0.018828 -8.13248e-05 0.000163639)
(0.0184943 -4.03782e-06 -4.49033e-05)
(0.0180606 6.74204e-05 -0.000307953)
(0.0176312 0.000110413 -0.000657889)
(0.0173083 0.000113873 -0.00102846)
(0.0171342 0.000102572 -0.00140262)
(0.0171106 6.99303e-05 -0.00177064)
(0.01726 2.49947e-05 -0.00208654)
(0.0175448 -6.93179e-06 -0.00226458)
(0.0178545 -8.22492e-06 -0.00222458)
(0.0180666 1.25333e-05 -0.00197463)
(0.0181424 3.28186e-05 -0.00163308)
(0.018109 4.39655e-05 -0.00135612)
(0.018036 4.34815e-05 -0.00122375)
(0.0179857 3.51846e-05 -0.00120759)
(0.017982 2.44592e-05 -0.0012407)
(0.0179979 2.30325e-05 -0.00128518)
(0.0180292 3.11438e-05 -0.00131427)
(0.0180845 3.47936e-05 -0.00127709)
(0.018153 2.71706e-05 -0.00114632)
(0.0181955 1.64866e-05 -0.000952585)
(0.0181985 1.19485e-05 -0.000737818)
(0.0181821 1.06537e-05 -0.000515526)
(0.0181606 8.973e-06 -0.000293641)
(0.0180954 1.00188e-05 -0.000101626)
(0.0179688 1.42524e-05 2.25912e-05)
(0.0178106 1.09195e-05 6.20355e-05)
(0.0176446 -2.30157e-06 -2.17485e-06)
(0.0174511 -1.89761e-05 -0.000236259)
(0.0304532 -8.9029e-05 -0.00105328)
(0.0301896 -9.56498e-05 -0.00177479)
(0.0300601 -5.79819e-05 -0.00245058)
(0.0300818 4.23143e-06 -0.00285984)
(0.0301956 4.18465e-05 -0.00276849)
(0.0302074 7.14554e-06 -0.00217077)
(0.0299679 -7.48548e-05 -0.0015287)
(0.0296399 -0.00011208 -0.00143571)
(0.0296394 -5.80946e-05 -0.00169666)
(0.0302106 2.65749e-05 -0.00168588)
(0.0311916 8.61658e-05 -0.000997358)
(0.0321803 9.87883e-05 0.00025225)
(0.0328885 9.40646e-05 0.00162819)
(0.0332878 9.0217e-05 0.00273255)
(0.0334441 6.80452e-05 0.00338158)
(0.0333869 -8.26076e-06 0.00351876)
(0.0331651 -0.000143064 0.00318548)
(0.0328577 -0.000301742 0.00253092)
(0.0325577 -0.000402084 0.00174299)
(0.0322933 -0.00039863 0.000974523)
(0.0320099 -0.000294283 0.000368989)
(0.0316506 -0.000128511 -6.36717e-05)
(0.031218 4.146e-05 -0.000430545)
(0.0307583 0.00016339 -0.000855496)
(0.0303594 0.00022667 -0.00136006)
(0.0301085 0.000231008 -0.00186166)
(0.030027 0.000202186 -0.00232935)
(0.0300769 0.000134741 -0.00274534)
(0.0302579 5.16377e-05 -0.00306377)
(0.0305321 -1.00966e-06 -0.00320297)
(0.0308133 5.32878e-06 -0.0030885)
(0.0310037 4.66206e-05 -0.00274284)
(0.0310771 8.31102e-05 -0.00231047)
(0.031054 9.98055e-05 -0.00197397)
(0.0309999 9.56446e-05 -0.00182241)
(0.0309701 7.94174e-05 -0.00181671)
(0.030983 6.21727e-05 -0.00187843)
(0.0310092 6.39379e-05 -0.00196606)
(0.0310676 8.26851e-05 -0.00204515)
(0.0311767 9.12442e-05 -0.0020466)
(0.0313087 7.7036e-05 -0.00192615)
(0.0313994 5.55364e-05 -0.00170431)
(0.0314354 4.31851e-05 -0.00141872)
(0.0314516 3.54479e-05 -0.00109083)
(0.0314732 2.70956e-05 -0.000753155)
(0.031463 2.22058e-05 -0.00046301)
(0.0313877 1.90458e-05 -0.000261742)
(0.0312537 5.74265e-06 -0.000159918)
(0.0310615 -2.25904e-05 -0.000194358)
(0.0307758 -5.74356e-05 -0.000477663)
(0.045173 -0.000161223 -0.00123498)
(0.0446607 -0.000157153 -0.00214212)
(0.0443497 -8.12778e-05 -0.00305148)
(0.0443139 2.46656e-05 -0.00364151)
(0.0444616 7.57698e-05 -0.00359915)
(0.0444879 1.00539e-05 -0.00288999)
(0.0441167 -0.00012407 -0.00206572)
(0.0435034 -0.000177006 -0.00189494)
(0.0432226 -8.5203e-05 -0.00221659)
(0.0436731 4.64535e-05 -0.00225474)
(0.0447185 0.000132144 -0.00145305)
(0.0458688 0.000134579 8.5068e-05)
(0.0467556 0.000102858 0.00182526)
(0.0473551 7.59528e-05 0.00325225)
(0.0477168 1.35285e-05 0.00411165)
(0.0478059 -0.000125714 0.00430978)
(0.0475734 -0.000341984 0.0038915)
(0.0470641 -0.000581851 0.00306842)
(0.0464397 -0.000719937 0.00210926)
(0.0458539 -0.00068837 0.00120432)
(0.0453388 -0.000498503 0.000491317)
(0.0448756 -0.000216101 -4.11655e-05)
(0.0444575 6.53536e-05 -0.000518668)
(0.0440813 0.000244467 -0.00107169)
(0.0438028 0.000340095 -0.00171894)
(0.0436877 0.000356175 -0.00236184)
(0.0437296 0.000312607 -0.00295569)
(0.0438518 0.000210448 -0.00347195)
(0.0440388 8.74211e-05 -0.00385564)
(0.0442698 1.29129e-05 -0.00401932)
(0.0444957 2.60617e-05 -0.00388074)
(0.0446544 8.8826e-05 -0.00346135)
(0.0447319 0.00014023 -0.00292744)
(0.0447365 0.000159167 -0.00250036)
(0.0447197 0.000147747 -0.00229481)
(0.0447244 0.000121006 -0.00226816)
(0.0447593 9.59152e-05 -0.00233351)
(0.0447902 0.000102442 -0.00245566)
(0.0448635 0.000137756 -0.00260463)
(0.0450238 0.000159995 -0.00270036)
(0.0452359 0.000148344 -0.00268588)
(0.0454118 0.000122857 -0.00256228)
(0.0455357 0.000104372 -0.00232593)
(0.0456575 8.59042e-05 -0.00196268)
(0.0458141 6.24205e-05 -0.0015177)
(0.0459787 4.48439e-05 -0.00110345)
(0.0460972 3.10375e-05 -0.000788255)
(0.0461391 1.12978e-07 -0.000554028)
(0.0460402 -5.36126e-05 -0.000430449)
(0.0456934 -0.00011572 -0.000610827)
(0.0613868 -0.00026417 -0.00119393)
(0.0604526 -0.000250178 -0.00228434)
(0.0597386 -0.000120579 -0.00357876)
(0.0595386 5.74977e-05 -0.00457325)
(0.0597747 0.000136024 -0.00475912)
(0.059942 3.29441e-05 -0.00400587)
(0.0595013 -0.000165621 -0.00297271)
(0.0585069 -0.000240573 -0.0027215)
(0.0577326 -0.000103207 -0.00321688)
(0.0578536 8.44422e-05 -0.00347749)
(0.058841 0.000198652 -0.00265298)
(0.0601023 0.000187335 -0.00074639)
(0.0611218 0.000106855 0.00160144)
(0.0618599 4.16682e-05 0.00368587)
(0.0624017 -7.40674e-05 0.00509728)
(0.0626595 -0.000285648 0.00560555)
(0.0624266 -0.000599842 0.00517246)
(0.0616344 -0.000943214 0.00407204)
(0.0604978 -0.00114162 0.00277684)
(0.0593744 -0.0010954 0.00165211)
(0.0584805 -0.000817076 0.000860986)
(0.0578697 -0.000401492 0.000313638)
(0.0575081 1.93495e-05 -0.000199869)
(0.0573071 0.000284016 -0.000841064)
(0.0572539 0.000428054 -0.00162857)
(0.0573765 0.000468287 -0.00243904)
(0.0576348 0.000416272 -0.00321293)
(0.0579125 0.000283271 -0.0039079)
(0.0581694 0.000120812 -0.00444104)
(0.0583962 2.29241e-05 -0.0047025)
(0.0585783 4.14642e-05 -0.00459582)
(0.058701 0.000125949 -0.00413016)
(0.0587794 0.000190443 -0.00348633)
(0.0588187 0.000207901 -0.0029381)
(0.0588567 0.000185027 -0.0026474)
(0.0589218 0.000143849 -0.00256919)
(0.0590015 0.000105952 -0.00259676)
(0.0590396 0.00011298 -0.00270438)
(0.059104 0.000165182 -0.0028766)
(0.0592808 0.000206528 -0.00302899)
(0.0595406 0.000207858 -0.00312223)
(0.0597814 0.000195217 -0.00319428)
(0.0599989 0.000189236 -0.00320094)
(0.0602743 0.00017036 -0.00300305)
(0.0606485 0.000128823 -0.00256423)
(0.0611106 8.97016e-05 -0.00204821)
(0.0616023 5.6306e-05 -0.00160521)
(0.0620614 -1.8656e-06 -0.00119686)
(0.0623223 -9.48708e-05 -0.00079376)
(0.0620991 -0.000196586 -0.000675347)
(0.0787134 -0.000411517 -0.000842482)
(0.0773933 -0.000403217 -0.00189237)
(0.0759553 -0.000216585 -0.00362602)
(0.0752082 6.12775e-05 -0.00531794)
(0.0753936 0.00020192 -0.00607343)
(0.0758365 7.42008e-05 -0.0054783)
(0.0755566 -0.000193918 -0.0042594)
(0.074291 -0.000298245 -0.00392165)
(0.0729447 -9.91802e-05 -0.0047665)
(0.0725894 0.000173272 -0.00563402)
(0.0734483 0.000323794 -0.00517364)
(0.0748716 0.000288603 -0.00306184)
(0.0760787 0.00013732 5.22416e-05)
(0.0768391 2.81187e-05 0.00326022)
(0.0773497 -0.000180771 0.00589871)
(0.0776093 -0.000485663 0.00743216)
(0.0773194 -0.000908406 0.00747766)
(0.0762222 -0.00137767 0.00615969)
(0.0744374 -0.00167384 0.00420885)
(0.0724767 -0.00165166 0.00247216)
(0.0708573 -0.00130827 0.00139854)
(0.0698442 -0.000752158 0.000849443)
(0.0694296 -0.00015759 0.000395889)
(0.0694244 0.000260761 -0.000261973)
(0.0696928 0.00048207 -0.0011651)
(0.0701588 0.000570713 -0.00214078)
(0.0707342 0.000516874 -0.00310073)
(0.0712717 0.000350604 -0.00399953)
(0.0717076 0.000142856 -0.00472399)
(0.0720346 1.27857e-05 -0.00512327)
(0.0722522 3.02681e-05 -0.00508729)
(0.0723832 0.000133841 -0.00461293)
(0.0724884 0.000210184 -0.00387542)
(0.0725908 0.000224158 -0.00319483)
(0.0727233 0.00018762 -0.00280775)
(0.0729054 0.000131208 -0.00268282)
(0.0731026 7.70413e-05 -0.00267377)
(0.0732106 7.64566e-05 -0.00275118)
(0.0732904 0.000139565 -0.0029119)
(0.073479 0.000198138 -0.00303417)
(0.0737583 0.000209726 -0.00306721)
(0.0739891 0.000212654 -0.0031798)
(0.0741779 0.000238517 -0.00345441)
(0.0744922 0.000249915 -0.0036589)
(0.0750143 0.000212915 -0.00352315)
(0.0757519 0.000158159 -0.00311879)
(0.0766811 0.000102875 -0.00267806)
(0.0777736 9.68447e-06 -0.00217395)
(0.0788062 -0.000141589 -0.00144794)
(0.0792253 -0.000305164 -0.000781431)
(0.0954899 -0.000617785 -0.000478832)
(0.0946008 -0.000640455 -0.000845657)
(0.0926711 -0.000417836 -0.00259664)
(0.0909744 -3.53567e-05 -0.00503155)
(0.0905742 0.000202764 -0.00674985)
(0.0910679 8.37344e-05 -0.00668878)
(0.0910614 -0.000250775 -0.0053942)
(0.089701 -0.000398619 -0.00488936)
(0.0877726 -0.000132828 -0.00613579)
(0.0867975 0.00028451 -0.00809214)
(0.0874691 0.000536175 -0.00885251)
(0.089273 0.00050865 -0.00743615)
(0.0911691 0.000281627 -0.00418568)
(0.0923982 4.52154e-05 3.16093e-05)
(0.0928106 -0.000249371 0.00442187)
(0.092609 -0.0006746 0.00812673)
(0.0917416 -0.00121845 0.0100808)
(0.0900641 -0.00181781 0.00962125)
(0.0875853 -0.00224531 0.00725901)
(0.0846934 -0.00231887 0.00443624)
(0.0820568 -0.00198796 0.00243643)
(0.0802474 -0.00134242 0.00151976)
(0.079468 -0.000571039 0.00108352)
(0.0795177 8.12373e-05 0.000483684)
(0.0801333 0.000484475 -0.000496869)
(0.0810303 0.000699615 -0.00165818)
(0.0819751 0.000691988 -0.00281804)
(0.0827832 0.000492446 -0.00390228)
(0.0834024 0.000212619 -0.00478327)
(0.0838608 1.56145e-05 -0.00527096)
(0.0841755 -5.87427e-07 -0.00525178)
(0.0843785 9.70161e-05 -0.00474286)
(0.084569 0.000170703 -0.0039126)
(0.0848046 0.000174017 -0.00309186)
(0.08512 0.00011959 -0.00259121)
(0.0855239 4.84748e-05 -0.00242404)
(0.0859737 -1.91203e-05 -0.00240067)
(0.0863117 -3.28669e-05 -0.00248154)
(0.0865364 3.39846e-05 -0.00270447)
(0.0868251 0.000113291 -0.00289421)
(0.0872187 0.000139364 -0.0028361)
(0.0875207 0.000147941 -0.0027067)
(0.0876554 0.000192183 -0.00286795)
(0.0878477 0.000239274 -0.00329856)
(0.0882781 0.000231593 -0.00359528)
(0.0889889 0.000188134 -0.0035904)
(0.0900128 0.000135668 -0.00348579)
(0.0914734 2.53253e-05 -0.00326531)
(0.0933222 -0.000186655 -0.0025428)
(0.0949096 -0.000438919 -0.00132844)
(0.108589 -0.000879741 -0.000860244)
(0.109214 -0.000990583 -1.0702e-05)
(0.108095 -0.000769029 -0.000840226)
(0.106092 -0.000289953 -0.00332328)
(0.104923 7.42256e-05 -0.00594507)
(0.10505 6.87226e-06 -0.00676583)
(0.105147 -0.000369338 -0.00562376)
(0.103744 -0.000582852 -0.00480864)
(0.101099 -0.000312078 -0.0061312)
(0.0990152 0.000227469 -0.00908914)
(0.0989069 0.000630222 -0.0115626)
(0.100766 0.000711203 -0.0119525)
(0.103717 0.000544948 -0.0101179)
(0.106683 0.000261362 -0.00657499)
(0.108576 -8.63681e-05 -0.00163935)
(0.108543 -0.000598816 0.00416524)
(0.106593 -0.00125587 0.00940375)
(0.103284 -0.00198662 0.0120946)
(0.0993291 -0.00255416 0.0113167)
(0.0952238 -0.00279838 0.00820878)
(0.0914785 -0.00262857 0.0049578)
(0.0886792 -0.00207135 0.00293423)
(0.0872198 -0.00125867 0.002)
(0.0870182 -0.00042248 0.00132102)
(0.0878311 0.000253139 0.000314359)
(0.0892077 0.00075266 -0.00102735)
(0.0906432 0.000974224 -0.00247219)
(0.0917643 0.000858914 -0.00382086)
(0.0924928 0.000523299 -0.00485851)
(0.0929361 0.000201734 -0.00534827)
(0.0932109 6.8118e-05 -0.00520434)
(0.0933995 8.15602e-05 -0.00452206)
(0.0936373 9.27195e-05 -0.00351928)
(0.0940197 4.62021e-05 -0.00252457)
(0.094588 -5.28542e-05 -0.00188416)
(0.0953197 -0.000149242 -0.00166218)
(0.0961558 -0.000227194 -0.0016114)
(0.0969118 -0.000253808 -0.00165057)
(0.0974898 -0.000200028 -0.00191546)
(0.0980218 -0.000110464 -0.00231457)
(0.0986521 -5.50785e-05 -0.00246147)
(0.0992253 -1.75677e-05 -0.00226194)
(0.099561 5.16639e-05 -0.00210658)
(0.099814 0.000124064 -0.00230681)
(0.100213 0.000134824 -0.00265031)
(0.100786 9.37802e-05 -0.00285996)
(0.101529 5.66365e-05 -0.00309017)
(0.102649 -3.75636e-05 -0.00342822)
(0.104455 -0.000266238 -0.00336945)
(0.106673 -0.00058925 -0.00237076)
(0.116765 -0.00113405 -0.00149953)
(0.118436 -0.00139228 -7.9007e-05)
(0.118826 -0.00127903 0.000302136)
(0.117789 -0.00077809 -0.00132337)
(0.116683 -0.000265714 -0.00411499)
(0.116664 -0.000200731 -0.00568472)
(0.117011 -0.000546757 -0.00482972)
(0.115995 -0.000804726 -0.00356456)
(0.113046 -0.000567626 -0.00449282)
(0.109679 2.5646e-05 -0.00786637)
(0.107912 0.000515317 -0.011599)
(0.108423 0.000614469 -0.0136092)
(0.110915 0.000441934 -0.0135304)
(0.114919 0.000243535 -0.0120977)
(0.119668 8.74279e-05 -0.00935963)
(0.123258 -0.000181306 -0.00450596)
(0.123193 -0.000749462 0.00239141)
(0.118892 -0.00150572 0.00903322)
(0.112182 -0.00221391 0.0124027)
(0.105209 -0.00266564 0.0116437)
(0.0993097 -0.00274767 0.00860383)
(0.0950282 -0.00245794 0.00565402)
(0.092598 -0.00186599 0.00372665)
(0.0918853 -0.00111816 0.00247326)
(0.0926138 -0.000326871 0.00126819)
(0.0942651 0.000471621 -0.000176404)
(0.0961743 0.0011084 -0.00183852)
(0.0977401 0.00133852 -0.00352649)
(0.0986989 0.00115044 -0.00485976)
(0.0991077 0.000769313 -0.00542642)
(0.0991866 0.000456905 -0.00509692)
(0.0991705 0.000269034 -0.00410232)
(0.0993089 0.000106428 -0.00279995)
(0.0997508 -7.11797e-05 -0.00156423)
(0.100546 -0.00027677 -0.000754504)
(0.101625 -0.000440827 -0.00047798)
(0.102885 -0.000549027 -0.00043255)
(0.10412 -0.000592494 -0.000406169)
(0.105176 -0.000564679 -0.000563025)
(0.106066 -0.000492371 -0.0010103)
(0.106956 -0.000433023 -0.00142021)
(0.107796 -0.000371075 -0.00147306)
(0.10843 -0.000257525 -0.00132578)
(0.108956 -0.000126443 -0.00134796)
(0.109633 -6.61547e-05 -0.00153271)
(0.110438 -9.8612e-05 -0.001618)
(0.11119 -0.000148302 -0.00174111)
(0.111929 -0.000234684 -0.00219493)
(0.113064 -0.000440504 -0.0027282)
(0.114736 -0.000759098 -0.00259569)
(0.12172 -0.0013411 -0.00116966)
(0.123105 -0.00168638 -6.89704e-05)
(0.124084 -0.00174667 0.000770321)
(0.124051 -0.00138262 -6.06298e-05)
(0.12351 -0.000838205 -0.00257314)
(0.123624 -0.00062874 -0.00456363)
(0.124434 -0.000863767 -0.00399448)
(0.124498 -0.00111701 -0.00212852)
(0.122549 -0.000920686 -0.00206494)
(0.119145 -0.000270413 -0.00508416)
(0.116323 0.000382332 -0.00951604)
(0.115242 0.000597858 -0.01268)
(0.115895 0.000343994 -0.0134813)
(0.118129 -0.000101811 -0.0129494)
(0.122363 -0.000434059 -0.0122663)
(0.128685 -0.000516795 -0.0108663)
(0.134607 -0.00050848 -0.00665781)
(0.135281 -0.000685621 0.000660973)
(0.128803 -0.00120468 0.00779755)
(0.118332 -0.00183573 0.0112612)
(0.108188 -0.0022639 0.0107494)
(0.100815 -0.00227909 0.00839911)
(0.0965438 -0.00197109 0.00601828)
(0.0947767 -0.00153041 0.00409)
(0.0950547 -0.000947053 0.00241887)
(0.0966956 -0.000104159 0.000789711)
(0.0988434 0.000873437 -0.000938873)
(0.100739 0.00160085 -0.0028036)
(0.102004 0.00182334 -0.00443706)
(0.102554 0.00161848 -0.00522416)
(0.102562 0.00122572 -0.0048517)
(0.102362 0.00079243 -0.00358241)
(0.102369 0.00034364 -0.00193993)
(0.102831 -6.19725e-05 -0.000426464)
(0.103832 -0.00044323 0.000565457)
(0.105244 -0.000712943 0.000895107)
(0.10692 -0.000888563 0.00087913)
(0.108601 -0.000976715 0.000879288)
(0.110118 -0.000982628 0.000827694)
(0.111399 -0.000938567 0.000495969)
(0.112569 -0.000896082 3.98761e-05)
(0.113575 -0.000852048 -0.000185195)
(0.114298 -0.000744463 -0.000164997)
(0.11486 -0.000574074 -0.00021064)
(0.115662 -0.00042884 -0.000407985)
(0.116771 -0.000390365 -0.000474274)
(0.117869 -0.000438514 -0.00042694)
(0.118707 -0.000540335 -0.000643102)
(0.119514 -0.000729344 -0.00118862)
(0.120476 -0.000985316 -0.00154634)
(0.1249 -0.00155982 -0.000326783)
(0.125472 -0.00189909 0.000424457)
(0.126086 -0.00207435 0.00128633)
(0.126355 -0.00186781 0.000804054)
(0.126206 -0.00138831 -0.00155223)
(0.126274 -0.00110606 -0.00391427)
(0.127032 -0.00126646 -0.00379812)
(0.127743 -0.00154148 -0.00155227)
(0.1272 -0.00145499 -0.000225272)
(0.125107 -0.000821349 -0.00211878)
(0.122882 1.19088e-05 -0.00655455)
(0.121739 0.000527564 -0.0106544)
(0.121696 0.00054433 -0.0121533)
(0.122236 0.000160533 -0.0114351)
(0.123531 -0.0005819 -0.0105545)
(0.127095 -0.00128132 -0.0107614)
(0.134423 -0.0013921 -0.0105481)
(0.142324 -0.000834449 -0.00683128)
(0.143304 -0.000373502 0.000311444)
(0.134511 -0.000563943 0.00688932)
(0.120882 -0.00124699 0.00989249)
(0.108678 -0.00173606 0.0096443)
(0.100945 -0.00173665 0.00788342)
(0.0971832 -0.00154212 0.00576089)
(0.0963005 -0.00130118 0.00369275)
(0.097447 -0.000709228 0.00180095)
(0.0995833 0.000352529 2.1874e-05)
(0.101673 0.00151735 -0.00184899)
(0.1032 0.00227927 -0.00362879)
(0.10402 0.00247525 -0.00465005)
(0.104222 0.00219761 -0.00439175)
(0.104104 0.0015984 -0.00302535)
(0.104155 0.000840424 -0.00116228)
(0.104689 0.000136027 0.000580389)
(0.105853 -0.000452755 0.00174435)
(0.107547 -0.000850081 0.00212913)
(0.10962 -0.00110745 0.00203332)
(0.111748 -0.00126351 0.00191878)
(0.113693 -0.00133816 0.00185145)
(0.115335 -0.00134911 0.00158633)
(0.116829 -0.00131443 0.00114436)
(0.11809 -0.00126542 0.000863436)
(0.118908 -0.00119231 0.00086269)
(0.119318 -0.00106382 0.000868689)
(0.119853 -0.000891522 0.000697998)
(0.12081 -0.000775052 0.000602522)
(0.12196 -0.000779445 0.000679535)
(0.122913 -0.000892344 0.000598863)
(0.123701 -0.00107357 0.000161266)
(0.12435 -0.00127486 -0.000325737)
(0.127534 -0.00166269 0.000269864)
(0.127374 -0.00200243 0.000765151)
(0.12713 -0.00231747 0.00164322)
(0.127067 -0.00225944 0.00147865)
(0.127164 -0.0018531 -0.000694057)
(0.12733 -0.00148122 -0.00342278)
(0.127753 -0.00155147 -0.00400924)
(0.128206 -0.0018558 -0.00190121)
(0.128132 -0.00193395 0.000441812)
(0.126984 -0.00152794 3.83169e-05)
(0.125539 -0.000745379 -0.0037536)
(0.125236 8.15914e-05 -0.00862214)
(0.126302 0.000562494 -0.0112888)
(0.127535 0.000564842 -0.0104752)
(0.127904 -8.61887e-05 -0.0081125)
(0.127961 -0.00130675 -0.00721371)
(0.130819 -0.00232313 -0.00852854)
(0.138977 -0.00197269 -0.00912175)
(0.147375 -0.00053226 -0.00548478)
(0.146656 0.000436618 0.00126934)
(0.135449 9.05413e-05 0.00695674)
(0.120398 -0.000815042 0.00938311)
(0.108288 -0.00123446 0.00904113)
(0.101211 -0.00125884 0.00723359)
(0.0981754 -0.00131135 0.00497497)
(0.097966 -0.00113026 0.00284015)
(0.0995238 -0.000250336 0.000975639)
(0.101595 0.00117194 -0.000860494)
(0.103381 0.0024783 -0.00267799)
(0.104638 0.00320064 -0.0039016)
(0.10541 0.00319576 -0.00389544)
(0.105861 0.00256785 -0.00268158)
(0.106348 0.00159288 -0.000820636)
(0.107073 0.000613116 0.00104747)
(0.108242 -0.000160244 0.00239755)
(0.109898 -0.000696197 0.0029234)
(0.112029 -0.00103164 0.00282983)
(0.11436 -0.00124568 0.00262017)
(0.116601 -0.00141276 0.00247791)
(0.118542 -0.00154176 0.00218732)
(0.120358 -0.00157575 0.00165955)
(0.122009 -0.00152149 0.00121618)
(0.123194 -0.00144375 0.0011113)
(0.123737 -0.0013439 0.00115959)
(0.124112 -0.00118054 0.00110411)
(0.124753 -0.00102277 0.00110458)
(0.125577 -0.000999671 0.00129063)
(0.126247 -0.0011417 0.00136418)
(0.126827 -0.00132626 0.00105346)
(0.127316 -0.0014678 0.000520239)
(0.130422 -0.00149976 0.000530786)
(0.130122 -0.00175057 0.00073499)
(0.129088 -0.00223595 0.00147038)
(0.127995 -0.00246429 0.00167734)
(0.127839 -0.00218742 0.000114271)
(0.128484 -0.00175133 -0.00257334)
(0.129153 -0.00175699 -0.00404001)
(0.12918 -0.0021118 -0.00291919)
(0.128615 -0.00220534 -0.000379791)
(0.127667 -0.00179917 0.000806964)
(0.126405 -0.00132736 -0.00135068)
(0.12581 -0.000972018 -0.00610269)
(0.127496 -0.000385201 -0.0104496)
(0.130867 0.00050415 -0.0114439)
(0.133369 0.000883192 -0.00859058)
(0.133298 -0.000114284 -0.00504897)
(0.132078 -0.00216238 -0.00450018)
(0.134656 -0.00323787 -0.00674202)
(0.143272 -0.00171755 -0.0074842)
(0.150242 0.000762745 -0.00361319)
(0.146609 0.00166095 0.00278178)
(0.133576 0.00080633 0.00775908)
(0.118956 -0.000134622 0.00954877)
(0.108376 -0.000508846 0.0086539)
(0.102567 -0.000814338 0.00643347)
(0.100226 -0.00111298 0.004033)
(0.100363 -0.000702829 0.00196368)
(0.101885 0.000650589 9.40938e-05)
(0.103813 0.00233049 -0.00178102)
(0.10567 0.00357186 -0.00327157)
(0.107376 0.00393117 -0.0037118)
(0.10885 0.0034253 -0.00296591)
(0.110159 0.00240498 -0.00142881)
(0.111302 0.00132681 0.000357242)
(0.112458 0.000491296 0.00186472)
(0.113762 -9.32048e-05 0.00268707)
(0.115436 -0.000458604 0.00285572)
(0.11741 -0.00069958 0.00280836)
(0.119469 -0.000952372 0.00279466)
(0.121332 -0.00124429 0.0026188)
(0.12314 -0.001454 0.00206819)
(0.124955 -0.0014975 0.00137777)
(0.126513 -0.0014503 0.000938898)
(0.127481 -0.00136627 0.000760768)
(0.128144 -0.00117992 0.000626241)
(0.128924 -0.000918134 0.000632653)
(0.129733 -0.000810378 0.00091368)
(0.130096 -0.000979847 0.00120803)
(0.130134 -0.00126627 0.00119381)
(0.130227 -0.00142981 0.000857834)
(0.133203 -0.0011025 0.000365117)
(0.133249 -0.00120305 0.000532371)
(0.132618 -0.00164258 0.00102271)
(0.130904 -0.002174 0.0012506)
(0.129487 -0.00224497 0.000376244)
(0.12972 -0.00182973 -0.00148701)
(0.131101 -0.00164804 -0.00308925)
(0.131822 -0.00211624 -0.00332661)
(0.130909 -0.00257233 -0.00207044)
(0.129345 -0.00216675 -0.0004513)
(0.128184 -0.00123788 -0.000479832)
(0.127258 -0.000894421 -0.00329167)
(0.127344 -0.00130266 -0.00764038)
(0.130283 -0.00127477 -0.0108823)
(0.135248 -0.000304641 -0.0106728)
(0.138679 0.000538832 -0.00704538)
(0.138319 -0.000137999 -0.00345302)
(0.136236 -0.0020978 -0.0034529)
(0.138795 -0.0027007 -0.0057831)
(0.147051 -0.000572402 -0.00594097)
(0.151633 0.00193636 -0.00182523)
(0.145022 0.00252845 0.00414599)
(0.131213 0.00178836 0.00845551)
(0.118351 0.00109373 0.00961202)
(0.110062 0.000472638 0.00821217)
(0.105525 -0.000285421 0.00567596)
(0.103614 -0.00054553 0.00315072)
(0.103717 0.000380757 0.00101071)
(0.105222 0.00212875 -0.000924733)
(0.107518 0.00372936 -0.00261507)
(0.110164 0.00438614 -0.00358576)
(0.112678 0.00400859 -0.00356133)
(0.114821 0.00304949 -0.00271885)
(0.116468 0.00206323 -0.00140683)
(0.117746 0.00134722 -4.27119e-05)
(0.118817 0.000884604 0.00095603)
(0.120024 0.000607518 0.00144877)
(0.121484 0.000403811 0.00174633)
(0.123086 9.90023e-05 0.00213906)
(0.12453 -0.000345032 0.00245993)
(0.125906 -0.000755987 0.00235018)
(0.127398 -0.000989205 0.00179712)
(0.128852 -0.00108559 0.00114861)
(0.129914 -0.00113272 0.000609883)
(0.13077 -0.0010233 0.000149393)
(0.131896 -0.000679164 -0.000101745)
(0.133246 -0.000331632 8.01996e-06)
(0.134042 -0.000293531 0.000305565)
(0.133944 -0.000607721 0.000488705)
(0.133383 -0.000966301 0.000464532)
(0.136315 -0.000215425 -0.000394382)
(0.135897 -0.000408053 -6.28341e-05)
(0.135917 -0.000811748 0.000599132)
(0.135356 -0.00146866 0.000885519)
(0.133915 -0.00190759 7.7144e-05)
(0.132757 -0.00173415 -0.00134214)
(0.133109 -0.0013645 -0.00224845)
(0.134304 -0.00157761 -0.00237208)
(0.134485 -0.00235168 -0.00221231)
(0.132871 -0.00265939 -0.00200808)
(0.130942 -0.00178783 -0.0018981)
(0.129912 -0.000600161 -0.00260009)
(0.129832 -0.000448556 -0.00463577)
(0.130983 -0.00139313 -0.00747407)
(0.134171 -0.00196555 -0.00937819)
(0.138434 -0.00128204 -0.0085686)
(0.140935 -0.000248018 -0.0051496)
(0.140481 -0.000268384 -0.00216994)
(0.139532 -0.00135286 -0.00255366)
(0.143174 -0.00138447 -0.00480001)
(0.15043 0.000452231 -0.00485944)
(0.151547 0.00243684 -0.00110144)
(0.142298 0.0030426 0.00475812)
(0.129659 0.00282152 0.00935331)
(0.120513 0.00234571 0.0105758)
(0.115373 0.0014938 0.00872946)
(0.112356 0.00056529 0.00528212)
(0.110618 0.000542006 0.00154372)
(0.110438 0.00173779 -0.00171579)
(0.111988 0.00331131 -0.00417451)
(0.114689 0.00418032 -0.00568106)
(0.117474 0.00405211 -0.00609921)
(0.119671 0.00339844 -0.0055778)
(0.121161 0.00279966 -0.00439297)
(0.122184 0.00246124 -0.00292221)
(0.122954 0.00225543 -0.00161225)
(0.123821 0.00208428 -0.000765059)
(0.125022 0.00186471 -0.000198479)
(0.126453 0.00146758 0.000463389)
(0.127743 0.000852061 0.00123405)
(0.128844 0.000239419 0.00178322)
(0.12997 -0.000161441 0.00186891)
(0.131108 -0.000404024 0.00156543)
(0.131941 -0.000606292 0.00103115)
(0.132557 -0.000684805 0.000358983)
(0.133493 -0.000465529 -0.000203836)
(0.13502 -3.31682e-05 -0.00041136)
(0.136568 0.000311366 -0.000343181)
(0.137385 0.000304301 -0.000280605)
(0.137089 3.5278e-05 -0.000342379)
(0.139953 0.000752983 -0.00111566)
(0.139468 0.000750968 -0.00120134)
(0.139164 0.000381552 -0.000547603)
(0.139012 -0.000440868 0.000314929)
(0.138639 -0.0012472 0.000138503)
(0.138038 -0.00146915 -0.0012498)
(0.137724 -0.00116246 -0.00248938)
(0.137827 -0.00103505 -0.00252287)
(0.137615 -0.00155404 -0.00185027)
(0.136436 -0.00222806 -0.00161103)
(0.134681 -0.00216233 -0.00223165)
(0.133424 -0.00118054 -0.00348854)
(0.133052 -0.000198888 -0.00478234)
(0.13352 -0.000308418 -0.0056435)
(0.134921 -0.00137722 -0.00609439)
(0.137462 -0.00198999 -0.00608917)
(0.140215 -0.00125526 -0.00514796)
(0.141582 -0.000226684 -0.00333626)
(0.141749 -0.000270489 -0.00186778)
(0.142958 -0.000933306 -0.00219682)
(0.147291 -0.000437092 -0.00366869)
(0.151814 0.00152752 -0.0035628)
(0.150076 0.00312806 -0.000437393)
(0.141552 0.00341532 0.00441406)
(0.132366 0.00291023 0.00880563)
(0.126977 0.00208475 0.0112803)
(0.125134 0.00115369 0.0111184)
(0.124783 0.000690063 0.00818483)
(0.124965 0.00114946 0.00341767)
(0.125816 0.00206599 -0.00147361)
(0.127212 0.00263853 -0.00516238)
(0.128211 0.00257605 -0.00715725)
(0.128227 0.00235644 -0.00776868)
(0.127557 0.00251275 -0.00742316)
(0.126807 0.00299124 -0.00639169)
(0.126328 0.00341296 -0.00494079)
(0.126412 0.00358232 -0.00348271)
(0.127231 0.0034542 -0.00223952)
(0.128625 0.00296721 -0.00108611)
(0.130102 0.0021446 4.64448e-05)
(0.131352 0.00123081 0.00100724)
(0.132419 0.00054671 0.00157221)
(0.133386 0.000130657 0.00170254)
(0.134078 -0.00015379 0.00147896)
(0.134482 -0.000329331 0.000965017)
(0.134983 -0.000268211 0.000336085)
(0.136011 5.84874e-05 -0.000169455)
(0.137495 0.000457485 -0.00042206)
(0.139034 0.000668431 -0.00053975)
(0.13994 0.000704263 -0.000742023)
(0.141717 0.000937216 -0.00129365)
(0.142357 0.00127049 -0.00190793)
(0.142902 0.00130246 -0.00201997)
(0.143157 0.000725678 -0.00131336)
(0.142939 -0.000201747 -0.000643226)
(0.142571 -0.00083267 -0.00106869)
(0.142569 -0.000825671 -0.00228601)
(0.142804 -0.000628908 -0.00306367)
(0.142367 -0.00086202 -0.00274302)
(0.140713 -0.00151131 -0.00196155)
(0.138389 -0.00186476 -0.00182508)
(0.136631 -0.00130561 -0.00292999)
(0.136139 -0.00016811 -0.00467366)
(0.136565 0.00032823 -0.00579674)
(0.137172 -0.000422031 -0.00559576)
(0.137934 -0.00152212 -0.00448335)
(0.1393 -0.00150478 -0.00328515)
(0.141095 -0.000348593 -0.00242741)
(0.142649 0.000329565 -0.00200318)
(0.143983 -0.000271088 -0.00191671)
(0.146081 -0.000817937 -0.00212851)
(0.149015 0.000244061 -0.00244778)
(0.150549 0.00236511 -0.00186611)
(0.148732 0.00385147 0.000294116)