/*--------------------------------*- C++ -*----------------------------------*\
| =========                 |                                                 |
| \\      /  F ield         | OpenFOAM: The Open Source CFD Toolbox           |
|  \\    /   O peration     | Version:  2.3.0                                 |
|   \\  /    A nd           | Web:      www.OpenFOAM.org                      |
|    \\/     M anipulation  |                                                 |
\*---------------------------------------------------------------------------*/
FoamFile
{
    version     2.0;
    format      ascii;
    class       volVectorField;
    location    "400";
    object      UMean;
}
// * * * * * * * * * * * * * * * * * * * * * * * * * * * * * * * * * * * * * //

dimensions      [0 1 -1 0 0 0 0];

internalField   nonuniform List<vector> 
90000
(
(0.00754678 -3.15587e-07 -0.000116927)
(0.00755054 -6.9202e-08 -0.000110805)
(0.00755249 1.07557e-07 -0.000110847)
(0.0075611 9.25477e-08 -0.000116526)
(0.00756737 9.45215e-08 -0.000116409)
(0.00756757 3.81494e-07 -0.000113712)
(0.0075695 1.95933e-07 -0.000107985)
(0.00757089 1.23483e-08 -0.000108843)
(0.00757099 3.87469e-07 -0.000113152)
(0.0075664 8.39467e-07 -0.000116484)
(0.00756483 7.62361e-07 -0.000117003)
(0.00755744 1.18836e-06 -0.000116866)
(0.00755456 1.09223e-06 -0.000119787)
(0.00755278 8.13975e-07 -0.000122443)
(0.00755027 1.10439e-06 -0.000122131)
(0.0075542 1.9437e-07 -0.000116665)
(0.00754792 1.26907e-08 -0.000111319)
(0.00755137 -1.06143e-07 -0.000112803)
(0.00755044 -1.64042e-07 -0.000109569)
(0.00755225 -1.07376e-07 -0.000107924)
(0.00755615 2.17881e-07 -0.000102004)
(0.00755581 1.64285e-07 -9.86889e-05)
(0.00755089 1.29197e-08 -0.000101839)
(0.00755352 -1.61464e-07 -0.000104738)
(0.00755582 -3.29728e-07 -0.000104521)
(0.00756046 2.21208e-07 -0.000107922)
(0.0075601 2.05738e-07 -0.000115163)
(0.00755152 4.38253e-07 -0.000123278)
(0.00754811 7.12463e-07 -0.00013346)
(0.0075486 3.23077e-07 -0.000134513)
(0.00753099 6.56959e-07 -0.000140619)
(0.00753786 9.86868e-07 -0.000140736)
(0.00754774 3.4085e-07 -0.000138255)
(0.00755148 4.22803e-08 -0.000129418)
(0.00755747 1.59691e-07 -0.000118857)
(0.00755681 1.47254e-07 -0.000104596)
(0.00755378 1.22185e-07 -9.89014e-05)
(0.00754092 -3.66143e-07 -9.3617e-05)
(0.00753918 -8.28842e-07 -9.85484e-05)
(0.00753422 -3.343e-08 -9.90212e-05)
(0.0075159 -1.2103e-06 -9.6816e-05)
(0.00756939 -1.37791e-06 -9.15367e-05)
(0.00758 -4.00813e-07 -9.97268e-05)
(0.00758933 7.09116e-08 -0.000112848)
(0.0075919 1.07895e-07 -0.000125962)
(0.00759904 1.66464e-07 -0.000129711)
(0.00759556 2.03836e-07 -0.000131684)
(0.00759388 4.09632e-07 -0.000130492)
(0.00757454 7.58348e-07 -0.000130101)
(0.00758026 4.17138e-07 -0.000123325)
(0.0228847 -8.68729e-07 -0.000313667)
(0.0228644 -3.36569e-06 -0.000302264)
(0.0228619 -4.23578e-06 -0.000295191)
(0.0228777 -4.64808e-06 -0.00029355)
(0.0228981 -5.03578e-06 -0.000290376)
(0.0229026 -4.64561e-06 -0.000287367)
(0.0229183 -4.97743e-06 -0.000278127)
(0.0229229 -4.81781e-06 -0.000280824)
(0.0229248 -4.13006e-06 -0.000289748)
(0.022923 -2.75864e-06 -0.000301112)
(0.02292 -2.79108e-06 -0.000308087)
(0.022904 -2.6752e-06 -0.000311284)
(0.0229032 -3.12181e-06 -0.000323153)
(0.022899 -3.32733e-06 -0.00033357)
(0.0228991 -3.41542e-06 -0.000339803)
(0.0229155 -3.95153e-06 -0.000334248)
(0.0228936 -3.91006e-06 -0.000324493)
(0.0228989 -4.48203e-06 -0.000319416)
(0.0228941 -3.80764e-06 -0.000305138)
(0.0228947 -3.82676e-06 -0.000301686)
(0.0228983 -3.10522e-06 -0.000290697)
(0.0229098 -1.9326e-06 -0.000276038)
(0.0229 -2.26368e-06 -0.000275968)
(0.02291 -3.81163e-06 -0.000273638)
(0.0229108 -3.55487e-06 -0.000269641)
(0.0229263 -4.09148e-06 -0.000274385)
(0.022937 -2.62419e-06 -0.000288854)
(0.0229231 -1.49895e-06 -0.00029821)
(0.0229221 -2.50594e-06 -0.000318558)
(0.022922 -2.47371e-06 -0.000319987)
(0.0228641 -3.73645e-06 -0.000334309)
(0.0228992 -6.20081e-06 -0.000338826)
(0.0229309 -5.81545e-06 -0.000335412)
(0.022929 -5.32438e-06 -0.000322123)
(0.0229401 -4.20691e-06 -0.000308925)
(0.0229363 -3.4897e-06 -0.000284526)
(0.0229362 -2.42123e-06 -0.000273749)
(0.0228984 -2.30088e-06 -0.000260117)
(0.0228806 -3.56816e-06 -0.00026477)
(0.0228529 -2.64744e-06 -0.000259384)
(0.0228299 -6.60293e-06 -0.000264521)
(0.0228416 -7.81197e-06 -0.000255417)
(0.0228359 -4.67565e-06 -0.000265203)
(0.0228565 -3.3521e-06 -0.000285816)
(0.0228636 -2.92653e-06 -0.000314906)
(0.0229008 -2.80407e-06 -0.000321704)
(0.0229117 -2.57829e-06 -0.000331521)
(0.0229371 -4.64127e-07 -0.000328483)
(0.0229205 -2.12832e-06 -0.000332625)
(0.0229571 1.12215e-06 -0.000320996)
(0.0387551 -1.00054e-05 -0.000475937)
(0.0387312 -1.39893e-05 -0.000473645)
(0.0387369 -1.68421e-05 -0.000469326)
(0.0387533 -1.83501e-05 -0.000459739)
(0.0387814 -1.83341e-05 -0.000455292)
(0.0387837 -1.7594e-05 -0.000448257)
(0.0387952 -1.83753e-05 -0.000436387)
(0.0388007 -1.76108e-05 -0.000436)
(0.0387791 -1.58822e-05 -0.000447841)
(0.0387763 -1.33543e-05 -0.000462821)
(0.0387551 -1.23359e-05 -0.000472644)
(0.0387437 -1.1017e-05 -0.000486329)
(0.0387468 -1.10977e-05 -0.000499485)
(0.0387352 -8.30983e-06 -0.000508875)
(0.0387575 -1.34318e-05 -0.000525813)
(0.0387885 -1.25467e-05 -0.000521392)
(0.0387786 -1.08835e-05 -0.000518782)
(0.0387934 -1.18644e-05 -0.000505725)
(0.0387847 -1.10947e-05 -0.000493426)
(0.0388004 -1.06733e-05 -0.000474583)
(0.0387915 -1.13044e-05 -0.00045684)
(0.0388266 -1.37326e-05 -0.000435025)
(0.0388244 -1.52731e-05 -0.000428408)
(0.0388281 -1.73031e-05 -0.000412762)
(0.038824 -1.61608e-05 -0.000399637)
(0.0388193 -1.85116e-05 -0.000399658)
(0.0388231 -1.64505e-05 -0.000412367)
(0.0388082 -1.33933e-05 -0.000427436)
(0.0388 -1.3523e-05 -0.000442031)
(0.0387629 -9.84719e-06 -0.000443742)
(0.0387055 -1.16375e-05 -0.000460957)
(0.03866 -1.79119e-05 -0.00046311)
(0.0386595 -1.67573e-05 -0.000458531)
(0.0386249 -1.56236e-05 -0.000448603)
(0.0386357 -1.49287e-05 -0.000447957)
(0.03863 -1.38229e-05 -0.000429915)
(0.0386458 -1.1849e-05 -0.000426215)
(0.0386233 -1.1603e-05 -0.000410785)
(0.0386266 -1.07279e-05 -0.000417029)
(0.0386178 -1.34041e-05 -0.000401891)
(0.0386369 -1.69412e-05 -0.000419712)
(0.0386406 -1.82234e-05 -0.000408727)
(0.0386468 -1.81571e-05 -0.000435211)
(0.0386888 -1.73145e-05 -0.000451064)
(0.0387034 -1.96154e-05 -0.000483305)
(0.0387561 -2.01712e-05 -0.000471908)
(0.0387675 -2.07525e-05 -0.000483883)
(0.0388047 -1.52588e-05 -0.000473171)
(0.0387822 -1.50124e-05 -0.000488755)
(0.0387984 -6.81939e-06 -0.000473158)
(0.0545214 -2.66034e-05 -0.000644923)
(0.0544816 -3.2795e-05 -0.000646486)
(0.0544736 -3.83611e-05 -0.000658583)
(0.0544761 -3.99311e-05 -0.000640127)
(0.0544969 -3.96544e-05 -0.000638234)
(0.0545067 -3.54808e-05 -0.000613581)
(0.0545209 -3.66057e-05 -0.000599444)
(0.054549 -3.34841e-05 -0.000584189)
(0.0545407 -3.24746e-05 -0.000594725)
(0.0545789 -2.97881e-05 -0.000601805)
(0.054559 -3.10126e-05 -0.000623361)
(0.0545857 -3.54215e-05 -0.000627207)
(0.0546177 -3.71958e-05 -0.000653267)
(0.0546152 -3.43378e-05 -0.000660369)
(0.0546217 -3.9131e-05 -0.000692079)
(0.0546248 -3.59655e-05 -0.000676924)
(0.0545866 -3.05851e-05 -0.000684591)
(0.0545619 -2.72788e-05 -0.000661209)
(0.0545233 -2.44495e-05 -0.000667235)
(0.0544915 -2.20473e-05 -0.000622978)
(0.0544793 -2.08845e-05 -0.000603694)
(0.0544193 -2.16513e-05 -0.000564811)
(0.0543695 -2.35239e-05 -0.000557117)
(0.0543266 -2.8559e-05 -0.000528169)
(0.054318 -2.62706e-05 -0.000519998)
(0.0542948 -3.22986e-05 -0.000510469)
(0.0543113 -3.15473e-05 -0.000530655)
(0.0543193 -3.04369e-05 -0.000532656)
(0.0543363 -2.97242e-05 -0.000536869)
(0.0543325 -2.85207e-05 -0.000528478)
(0.0543193 -2.94407e-05 -0.000547835)
(0.0543087 -3.81323e-05 -0.000543891)
(0.0543463 -3.7601e-05 -0.000541682)
(0.0543275 -3.60318e-05 -0.000530652)
(0.0543673 -3.52132e-05 -0.000541762)
(0.0543658 -3.42997e-05 -0.000547109)
(0.0543861 -3.14311e-05 -0.000559095)
(0.0543749 -3.11731e-05 -0.000544001)
(0.0543786 -2.82591e-05 -0.000554814)
(0.0543583 -3.02932e-05 -0.000547895)
(0.0543698 -3.24584e-05 -0.000578849)
(0.0543477 -3.16645e-05 -0.000585996)
(0.0543326 -3.60473e-05 -0.000622522)
(0.0543637 -3.60108e-05 -0.00063073)
(0.0543742 -3.92694e-05 -0.00065739)
(0.0544323 -4.00349e-05 -0.000638029)
(0.0544422 -4.10929e-05 -0.00064608)
(0.0545177 -3.50461e-05 -0.000625061)
(0.0545104 -3.63313e-05 -0.000639508)
(0.0546036 -2.42033e-05 -0.000626288)
(0.0694311 -5.05812e-05 -0.000836214)
(0.0694023 -5.85545e-05 -0.000838069)
(0.0694471 -6.7463e-05 -0.000850966)
(0.0694336 -7.11275e-05 -0.000824118)
(0.0694584 -7.37445e-05 -0.000827844)
(0.069447 -6.87943e-05 -0.000785181)
(0.0694533 -6.95453e-05 -0.00077605)
(0.0694349 -6.37687e-05 -0.000738113)
(0.0694416 -5.83948e-05 -0.000745504)
(0.0694252 -5.11594e-05 -0.000735873)
(0.0694174 -4.70649e-05 -0.000761608)
(0.0693579 -4.51353e-05 -0.000750834)
(0.0693118 -4.43686e-05 -0.000774568)
(0.0692524 -3.91847e-05 -0.000778839)
(0.0691947 -4.43163e-05 -0.000811956)
(0.0691377 -4.20442e-05 -0.00079565)
(0.0690934 -3.59792e-05 -0.000805407)
(0.0690532 -3.31078e-05 -0.000772613)
(0.0690223 -3.06295e-05 -0.000797768)
(0.0689973 -3.28126e-05 -0.000739627)
(0.0689961 -3.32008e-05 -0.000739496)
(0.0689808 -3.41721e-05 -0.000673952)
(0.0689926 -3.86438e-05 -0.000676718)
(0.0689943 -4.82507e-05 -0.000639765)
(0.069037 -4.79761e-05 -0.000645549)
(0.069055 -5.52021e-05 -0.00061796)
(0.0691113 -5.66865e-05 -0.000657787)
(0.0691278 -5.68742e-05 -0.000634151)
(0.0691542 -5.7207e-05 -0.000653334)
(0.0691582 -5.27637e-05 -0.000622399)
(0.0691265 -5.07186e-05 -0.000647062)
(0.0691138 -5.95699e-05 -0.000636314)
(0.0691132 -6.1466e-05 -0.000655016)
(0.0691083 -6.04568e-05 -0.000616676)
(0.0691239 -5.83493e-05 -0.000638786)
(0.0691159 -5.58729e-05 -0.000643944)
(0.0691271 -5.24794e-05 -0.000676471)
(0.069137 -5.1067e-05 -0.00066624)
(0.0691743 -4.77642e-05 -0.000686762)
(0.0692087 -5.02402e-05 -0.0006919)
(0.0692715 -5.50737e-05 -0.000736337)
(0.069292 -5.67481e-05 -0.000756197)
(0.0693428 -6.6179e-05 -0.000803266)
(0.0693712 -6.95084e-05 -0.000814725)
(0.0694064 -7.96126e-05 -0.000857039)
(0.0694187 -8.00663e-05 -0.000845986)
(0.0694437 -8.55863e-05 -0.000865718)
(0.069452 -7.52685e-05 -0.000837162)
(0.0694463 -7.67424e-05 -0.000847756)
(0.0694599 -6.036e-05 -0.000825186)
(0.0824226 -8.09049e-05 -0.000957871)
(0.0823843 -8.52059e-05 -0.000941952)
(0.0824411 -9.11039e-05 -0.000959255)
(0.0823686 -8.84961e-05 -0.000933179)
(0.0824117 -9.02739e-05 -0.000928938)
(0.0823208 -8.24252e-05 -0.000906491)
(0.0823616 -8.31801e-05 -0.000898575)
(0.0822921 -7.64242e-05 -0.000857303)
(0.0823444 -7.32194e-05 -0.000867146)
(0.0823003 -6.57461e-05 -0.000841695)
(0.0823435 -6.73449e-05 -0.000863536)
(0.0822878 -6.39781e-05 -0.000840418)
(0.0823316 -7.1532e-05 -0.000866352)
(0.082297 -6.46851e-05 -0.00085381)
(0.0823227 -7.22359e-05 -0.000885542)
(0.0823032 -6.92324e-05 -0.000877006)
(0.0823342 -6.56949e-05 -0.000896607)
(0.082335 -5.93514e-05 -0.000865968)
(0.082345 -5.62906e-05 -0.000891855)
(0.0823049 -5.24446e-05 -0.000853837)
(0.0823163 -5.10464e-05 -0.00085702)
(0.0822786 -4.93015e-05 -0.000796266)
(0.0822941 -5.40152e-05 -0.000806569)
(0.0822372 -6.40572e-05 -0.000780873)
(0.0822492 -6.7175e-05 -0.000795884)
(0.0822197 -7.61329e-05 -0.000773912)
(0.0822537 -7.62879e-05 -0.000808977)
(0.0822493 -7.48818e-05 -0.000803669)
(0.0822745 -8.20417e-05 -0.000820563)
(0.0823229 -7.98889e-05 -0.000795947)
(0.0823606 -7.91819e-05 -0.000812834)
(0.0823925 -8.99903e-05 -0.000803677)
(0.0824676 -9.34037e-05 -0.000829082)
(0.0824944 -9.14056e-05 -0.000784834)
(0.0825539 -9.03399e-05 -0.000787384)
(0.0825468 -8.7507e-05 -0.000772605)
(0.082571 -8.49223e-05 -0.000808222)
(0.0825435 -8.33259e-05 -0.000801447)
(0.0825846 -7.99062e-05 -0.000817898)
(0.082564 -7.68407e-05 -0.000820941)
(0.0826148 -7.86878e-05 -0.000860171)
(0.0825744 -7.73907e-05 -0.000875706)
(0.082599 -8.37166e-05 -0.000920754)
(0.0825366 -8.33654e-05 -0.000937042)
(0.0825456 -8.80593e-05 -0.000998875)
(0.0824529 -9.21485e-05 -0.00100342)
(0.0824855 -9.61824e-05 -0.0010332)
(0.0823746 -9.22906e-05 -0.000998822)
(0.0824494 -9.28132e-05 -0.00100601)
(0.0823114 -8.45332e-05 -0.00095788)
(0.0937658 -9.25711e-05 -0.000989208)
(0.0936339 -9.22214e-05 -0.000955091)
(0.0936731 -0.000100732 -0.000978817)
(0.0935693 -9.78842e-05 -0.000958476)
(0.0936698 -0.000103614 -0.000950991)
(0.0936141 -9.50059e-05 -0.000923307)
(0.0937454 -9.74434e-05 -0.000907811)
(0.0937029 -8.76849e-05 -0.000871137)
(0.0938105 -8.42744e-05 -0.000865425)
(0.0937477 -7.15788e-05 -0.000846548)
(0.0938372 -6.83644e-05 -0.000851085)
(0.0937455 -5.77477e-05 -0.000825578)
(0.0938194 -6.64624e-05 -0.000839086)
(0.0937141 -5.77248e-05 -0.000827963)
(0.0937488 -6.76739e-05 -0.000856943)
(0.0936231 -6.67109e-05 -0.000855048)
(0.093658 -6.96186e-05 -0.000881463)
(0.0935659 -6.18744e-05 -0.000876323)
(0.0936148 -6.40391e-05 -0.000903608)
(0.0935545 -6.463e-05 -0.000880486)
(0.0936217 -6.84955e-05 -0.000906536)
(0.0935869 -6.79788e-05 -0.000862853)
(0.0936881 -6.96444e-05 -0.000895344)
(0.0936536 -7.46033e-05 -0.000871763)
(0.0937492 -8.12193e-05 -0.000907791)
(0.0936938 -9.05751e-05 -0.00088758)
(0.093773 -9.86775e-05 -0.000931974)
(0.0937357 -9.65785e-05 -0.00093865)
(0.0938079 -0.000107823 -0.000975018)
(0.0937642 -0.000101788 -0.000945683)
(0.0938324 -9.9684e-05 -0.000960947)
(0.0937949 -0.000100357 -0.000947644)
(0.0938811 -0.000103639 -0.00096205)
(0.0938466 -9.54383e-05 -0.000912785)
(0.0938841 -8.82629e-05 -0.000903988)
(0.0938066 -7.58884e-05 -0.000871524)
(0.0938196 -7.57148e-05 -0.00088027)
(0.0937409 -7.3819e-05 -0.000857566)
(0.0937548 -7.31663e-05 -0.00088428)
(0.0937139 -7.32939e-05 -0.000874898)
(0.0937415 -8.16466e-05 -0.00091333)
(0.0936897 -8.51202e-05 -0.000914669)
(0.0936891 -9.65035e-05 -0.000960003)
(0.0936444 -9.74433e-05 -0.000971942)
(0.0936727 -0.000109088 -0.00104913)
(0.0936584 -0.000113205 -0.00103785)
(0.0937133 -0.000121969 -0.00108579)
(0.0937481 -0.000111131 -0.00103567)
(0.0938014 -0.000113371 -0.00105689)
(0.0937642 -8.87614e-05 -0.000986474)
(0.103385 -6.1904e-05 -0.000910196)
(0.103263 -5.29066e-05 -0.000885881)
(0.103369 -5.45706e-05 -0.00090661)
(0.103265 -5.40872e-05 -0.000887249)
(0.103377 -5.77658e-05 -0.000887117)
(0.103269 -5.45909e-05 -0.000857763)
(0.103366 -6.13411e-05 -0.000848749)
(0.103239 -5.37329e-05 -0.000813489)
(0.103339 -5.216e-05 -0.000823058)
(0.103231 -4.74501e-05 -0.000801396)
(0.103358 -5.38296e-05 -0.000822636)
(0.103303 -5.12598e-05 -0.000814206)
(0.103421 -6.52945e-05 -0.000833202)
(0.103346 -5.20432e-05 -0.000816411)
(0.103425 -6.38621e-05 -0.000836546)
(0.1033 -6.85825e-05 -0.0008254)
(0.103367 -7.66944e-05 -0.000855944)
(0.103253 -7.11663e-05 -0.00085612)
(0.103335 -7.0979e-05 -0.000891531)
(0.103221 -6.61119e-05 -0.000896497)
(0.103281 -6.95846e-05 -0.000916182)
(0.103178 -6.35247e-05 -0.000887137)
(0.103296 -6.74987e-05 -0.000921474)
(0.103233 -6.94435e-05 -0.000900142)
(0.103356 -7.22547e-05 -0.000940867)
(0.103267 -7.05646e-05 -0.000931508)
(0.103337 -7.89064e-05 -0.000984956)
(0.103218 -8.21571e-05 -0.000972302)
(0.103301 -0.000100009 -0.00102242)
(0.103206 -9.5547e-05 -0.000979413)
(0.103306 -9.94085e-05 -0.00100577)
(0.103238 -0.000101942 -0.000984333)
(0.103315 -0.000110866 -0.00099572)
(0.103239 -0.000102671 -0.00094218)
(0.103295 -9.84809e-05 -0.000935505)
(0.103252 -8.54673e-05 -0.000883739)
(0.103344 -8.55868e-05 -0.000898278)
(0.10333 -7.50048e-05 -0.000853915)
(0.10342 -6.66669e-05 -0.000883752)
(0.103363 -5.70511e-05 -0.000858044)
(0.103397 -5.91143e-05 -0.00089891)
(0.10333 -5.24589e-05 -0.000877804)
(0.10338 -5.64186e-05 -0.000934266)
(0.103335 -5.31425e-05 -0.000925513)
(0.103397 -6.49091e-05 -0.000998862)
(0.10336 -7.48449e-05 -0.000987215)
(0.103389 -8.754e-05 -0.00102599)
(0.10333 -9.0251e-05 -0.000973798)
(0.103366 -8.28164e-05 -0.000989387)
(0.103322 -7.43423e-05 -0.00091031)
(0.111565 -3.85239e-05 -0.00079302)
(0.111443 -4.29247e-05 -0.000777108)
(0.111557 -5.23064e-05 -0.00079676)
(0.111475 -4.71073e-05 -0.000784324)
(0.111574 -4.54725e-05 -0.000801786)
(0.111478 -3.84395e-05 -0.000785272)
(0.111547 -4.18709e-05 -0.000789179)
(0.111427 -2.89255e-05 -0.000767441)
(0.111516 -2.51429e-05 -0.000779457)
(0.11142 -1.12161e-05 -0.000776514)
(0.111515 -1.62651e-05 -0.000797503)
(0.111411 -1.23416e-05 -0.000790485)
(0.111493 -2.55519e-05 -0.000803092)
(0.111407 -1.74114e-05 -0.000789663)
(0.111517 -2.42201e-05 -0.000800734)
(0.111363 -2.3067e-05 -0.000777208)
(0.111419 -2.90141e-05 -0.000787814)
(0.111229 -2.91787e-05 -0.000784587)
(0.111249 -3.83101e-05 -0.000815262)
(0.111109 -3.85316e-05 -0.000811142)
(0.111161 -4.4905e-05 -0.000835419)
(0.111072 -4.63631e-05 -0.000802784)
(0.111189 -5.79479e-05 -0.00083023)
(0.111092 -6.03131e-05 -0.000810982)
(0.11121 -6.46095e-05 -0.000857809)
(0.111145 -6.44725e-05 -0.000852479)
(0.11128 -6.98666e-05 -0.000905503)
(0.111275 -6.5969e-05 -0.000912297)
(0.111397 -7.28751e-05 -0.000945883)
(0.111369 -6.41365e-05 -0.000933851)
(0.111471 -6.67257e-05 -0.000960938)
(0.111394 -6.25012e-05 -0.000943879)
(0.11149 -6.62163e-05 -0.000966711)
(0.111434 -5.43052e-05 -0.000918936)
(0.111549 -5.04756e-05 -0.00092688)
(0.111497 -4.09608e-05 -0.000890861)
(0.111608 -4.64402e-05 -0.000896937)
(0.111545 -3.92356e-05 -0.000859616)
(0.111652 -3.81813e-05 -0.000891983)
(0.111575 -2.51463e-05 -0.000868801)
(0.111644 -3.27023e-05 -0.000906484)
(0.111574 -2.91231e-05 -0.000874131)
(0.111671 -4.22877e-05 -0.000918266)
(0.111612 -3.46497e-05 -0.000913845)
(0.111694 -5.07453e-05 -0.000979089)
(0.111604 -5.46318e-05 -0.000959628)
(0.111642 -7.24071e-05 -0.00097102)
(0.111526 -6.48454e-05 -0.000905764)
(0.111558 -6.78656e-05 -0.000893164)
(0.111476 -4.14272e-05 -0.00082106)
(0.118228 -3.85459e-05 -0.000736825)
(0.11812 -3.22643e-05 -0.000694592)
(0.118194 -4.55679e-05 -0.000730024)
(0.118115 -4.35157e-05 -0.000696244)
(0.11821 -4.44158e-05 -0.000733178)
(0.118151 -3.22484e-05 -0.000694722)
(0.118224 -2.77553e-05 -0.000723753)
(0.118106 -1.92251e-05 -0.000694683)
(0.118148 -2.27645e-05 -0.000732105)
(0.118036 -2.25071e-05 -0.000713571)
(0.118078 -2.7377e-05 -0.000753627)
(0.118001 -2.4982e-05 -0.000731966)
(0.118044 -3.7507e-05 -0.000760527)
(0.117957 -4.11138e-05 -0.000734016)
(0.117997 -4.92515e-05 -0.000753819)
(0.117862 -4.79221e-05 -0.000703986)
(0.117913 -5.16533e-05 -0.000715363)
(0.117793 -4.16314e-05 -0.000670431)
(0.117833 -4.1723e-05 -0.000693061)
(0.117743 -3.17012e-05 -0.000658822)
(0.1178 -3.33608e-05 -0.000693246)
(0.117754 -3.21812e-05 -0.000659002)
(0.117863 -3.11593e-05 -0.000700785)
(0.117826 -2.57614e-05 -0.000673914)
(0.11798 -2.82481e-05 -0.000723558)
(0.117959 -2.97879e-05 -0.000709074)
(0.118114 -4.30842e-05 -0.000765101)
(0.118118 -5.16079e-05 -0.000760093)
(0.118241 -6.61053e-05 -0.000800462)
(0.118243 -6.92228e-05 -0.00079204)
(0.118359 -7.95538e-05 -0.000836348)
(0.118341 -8.14067e-05 -0.000825869)
(0.118451 -8.72099e-05 -0.000847693)
(0.118424 -7.78445e-05 -0.0008146)
(0.118519 -7.59691e-05 -0.000837036)
(0.118459 -6.82981e-05 -0.000826105)
(0.118517 -7.39494e-05 -0.000847134)
(0.118453 -6.71629e-05 -0.000806372)
(0.118503 -6.1903e-05 -0.000846549)
(0.118425 -4.74086e-05 -0.000810696)
(0.118473 -4.57704e-05 -0.00083757)
(0.118402 -3.76753e-05 -0.000787417)
(0.118427 -4.42484e-05 -0.000821814)
(0.118351 -4.61719e-05 -0.000809779)
(0.118415 -5.53271e-05 -0.000856992)
(0.11832 -5.27657e-05 -0.000824601)
(0.118378 -4.40329e-05 -0.000853555)
(0.118257 -4.10936e-05 -0.000792733)
(0.118302 -4.15816e-05 -0.000813185)
(0.118147 -4.66243e-05 -0.000740923)
(0.12342 -5.63754e-05 -0.000580397)
(0.123337 -5.70857e-05 -0.000534587)
(0.123378 -7.12136e-05 -0.000573243)
(0.123286 -7.76175e-05 -0.000540347)
(0.123335 -9.47291e-05 -0.000563882)
(0.123254 -9.23132e-05 -0.000528489)
(0.123318 -9.19853e-05 -0.000557219)
(0.123233 -7.49442e-05 -0.000525247)
(0.123293 -6.97797e-05 -0.000559156)
(0.123225 -5.25554e-05 -0.000539658)
(0.123264 -5.18511e-05 -0.000581875)
(0.123216 -4.49313e-05 -0.00055472)
(0.123246 -5.23759e-05 -0.00058734)
(0.123203 -4.77169e-05 -0.000559607)
(0.123258 -5.24798e-05 -0.000591141)
(0.123217 -4.59335e-05 -0.000546467)
(0.123284 -5.49716e-05 -0.000566985)
(0.123228 -5.22885e-05 -0.000507103)
(0.123267 -6.28441e-05 -0.000531573)
(0.123202 -5.76433e-05 -0.000478302)
(0.123264 -7.01749e-05 -0.000512521)
(0.123223 -7.73126e-05 -0.000478172)
(0.123351 -8.57128e-05 -0.000522596)
(0.123326 -8.63068e-05 -0.000497822)
(0.123464 -9.8531e-05 -0.000550522)
(0.123445 -9.64355e-05 -0.00054096)
(0.12355 -0.000110082 -0.000597474)
(0.123509 -0.000104828 -0.00057793)
(0.123574 -0.000113905 -0.000609706)
(0.12355 -0.000107746 -0.000588654)
(0.12362 -0.000111265 -0.000628421)
(0.123603 -9.81694e-05 -0.000599333)
(0.123646 -9.79445e-05 -0.000620943)
(0.123614 -8.2826e-05 -0.000577859)
(0.123644 -8.58094e-05 -0.000617637)
(0.123607 -7.357e-05 -0.000590737)
(0.123633 -8.26048e-05 -0.000613385)
(0.123598 -7.50526e-05 -0.000573404)
(0.123621 -8.00176e-05 -0.000603301)
(0.123585 -6.93272e-05 -0.000554105)
(0.123572 -8.58968e-05 -0.000592093)
(0.123555 -8.06118e-05 -0.00055191)
(0.123558 -9.37079e-05 -0.000600605)
(0.123542 -8.3405e-05 -0.000565353)
(0.12353 -0.000101285 -0.000616293)
(0.123505 -9.08495e-05 -0.000585388)
(0.123495 -8.97492e-05 -0.000642318)
(0.123463 -6.52274e-05 -0.000596105)
(0.123453 -6.91004e-05 -0.000649121)
(0.12341 -4.08286e-05 -0.000584558)
(0.127665 -0.000127443 -0.000338695)
(0.127638 -0.000110293 -0.000328929)
(0.12763 -0.000111109 -0.000354891)
(0.127628 -0.000101939 -0.00033749)
(0.127625 -0.000107677 -0.000351305)
(0.12763 -0.000100504 -0.000324943)
(0.127638 -0.000106463 -0.000329423)
(0.127657 -9.96604e-05 -0.000297882)
(0.12767 -0.000110076 -0.000306476)
(0.1277 -0.000100293 -0.000292542)
(0.127702 -0.00011286 -0.000311746)
(0.12773 -0.000115022 -0.000299347)
(0.127737 -0.000126725 -0.000315705)
(0.127759 -0.000133903 -0.000297421)
(0.12775 -0.000150284 -0.000314061)
(0.12775 -0.000150896 -0.000298076)
(0.127728 -0.000154732 -0.000308175)
(0.127696 -0.000143641 -0.000279341)
(0.127656 -0.000142504 -0.000277063)
(0.127593 -0.000131073 -0.000243098)
(0.127553 -0.000135265 -0.000257344)
(0.127516 -0.000131879 -0.000244538)
(0.127518 -0.000137128 -0.000272585)
(0.127506 -0.000134602 -0.000274753)
(0.127504 -0.000145546 -0.000314012)
(0.127511 -0.000138517 -0.000324807)
(0.127512 -0.00014792 -0.000358309)
(0.127513 -0.000140513 -0.000345254)
(0.127515 -0.000153649 -0.000363539)
(0.127523 -0.000151164 -0.000347265)
(0.127526 -0.000167675 -0.000372716)
(0.127536 -0.000171083 -0.000343232)
(0.127548 -0.000171474 -0.00035791)
(0.127577 -0.00015195 -0.000334671)
(0.12759 -0.000157357 -0.000357314)
(0.1276 -0.000158237 -0.000337293)
(0.127602 -0.00016936 -0.000342553)
(0.127633 -0.000167979 -0.00031886)
(0.127648 -0.000166599 -0.000330407)
(0.12768 -0.000148982 -0.000297349)
(0.127659 -0.000144654 -0.000306215)
(0.127682 -0.000137477 -0.000290476)
(0.127655 -0.000141593 -0.000318429)
(0.127685 -0.000136836 -0.000302851)
(0.127667 -0.000139562 -0.000324462)
(0.127689 -0.000145268 -0.000301085)
(0.127643 -0.000140766 -0.000331089)
(0.127676 -0.00013735 -0.000313719)
(0.127652 -0.000127928 -0.000351961)
(0.127683 -0.000134405 -0.000331065)
(0.131184 -0.000216842 -0.000102316)
(0.1312 -0.000209584 -9.92758e-05)
(0.131201 -0.000209938 -0.000128173)
(0.131212 -0.000202204 -0.00011581)
(0.131197 -0.000204231 -0.000134638)
(0.131182 -0.000191381 -0.000108502)
(0.131147 -0.000182264 -0.000108743)
(0.131123 -0.000168591 -7.12419e-05)
(0.131079 -0.000165548 -7.61299e-05)
(0.131059 -0.000153151 -5.4746e-05)
(0.131012 -0.000153155 -7.69391e-05)
(0.130993 -0.000149832 -6.39229e-05)
(0.130951 -0.000148478 -7.46186e-05)
(0.130929 -0.000151914 -4.57923e-05)
(0.130858 -0.000165913 -5.2542e-05)
(0.13081 -0.000170225 -2.99105e-05)
(0.130723 -0.000175296 -4.58869e-05)
(0.130682 -0.000175638 -2.00701e-05)
(0.13062 -0.000177821 -2.34303e-05)
(0.13057 -0.000175524 1.57393e-05)
(0.130496 -0.000194902 7.35591e-06)
(0.130458 -0.000212688 2.16918e-05)
(0.130445 -0.000230358 -6.8769e-07)
(0.13047 -0.000225044 -5.79453e-06)
(0.1305 -0.000225837 -3.91524e-05)
(0.130548 -0.000216894 -4.2517e-05)
(0.13058 -0.00021588 -6.36888e-05)
(0.130622 -0.000205327 -5.00982e-05)
(0.130654 -0.000208741 -6.75174e-05)
(0.130691 -0.000200832 -6.12131e-05)
(0.130722 -0.000207988 -8.25358e-05)
(0.130738 -0.000204592 -6.98083e-05)
(0.130768 -0.000206252 -9.01585e-05)
(0.13079 -0.000193869 -8.14856e-05)
(0.130843 -0.000204638 -0.000100856)
(0.130869 -0.000203392 -9.03432e-05)
(0.130912 -0.000222146 -0.000101673)
(0.130943 -0.000225146 -8.12674e-05)
(0.130994 -0.000233168 -9.70627e-05)
(0.131042 -0.000220037 -6.8954e-05)
(0.131101 -0.000233497 -8.21245e-05)
(0.131149 -0.000229538 -6.19323e-05)
(0.131194 -0.000240355 -8.56069e-05)
(0.131231 -0.000241311 -6.70883e-05)
(0.131266 -0.000257464 -7.51797e-05)
(0.131257 -0.000245407 -5.0582e-05)
(0.131245 -0.000246551 -7.06915e-05)
(0.131218 -0.000228242 -6.10325e-05)
(0.131224 -0.000233848 -9.49146e-05)
(0.131197 -0.000215178 -9.27692e-05)
(0.13354 -0.000277799 2.11583e-05)
(0.133531 -0.000265808 3.10227e-05)
(0.133492 -0.000254033 1.54648e-05)
(0.133481 -0.000241726 2.27919e-05)
(0.13344 -0.000236486 1.0159e-05)
(0.133418 -0.000228246 2.44998e-05)
(0.13337 -0.000225605 2.06962e-05)
(0.133357 -0.000224731 4.11159e-05)
(0.133318 -0.000224168 3.48696e-05)
(0.133315 -0.000217783 4.22419e-05)
(0.133269 -0.000225184 2.13206e-05)
(0.133268 -0.000237412 2.29853e-05)
(0.133236 -0.000248208 1.17196e-05)
(0.133257 -0.000251363 3.26655e-05)
(0.133222 -0.00025377 4.13529e-05)
(0.133207 -0.000249937 6.75394e-05)
(0.133129 -0.000250605 6.40201e-05)
(0.133092 -0.000253618 8.01744e-05)
(0.133025 -0.000245804 8.14208e-05)
(0.132982 -0.000235647 0.000109556)
(0.13288 -0.000240754 0.000109911)
(0.132828 -0.000243823 0.000123149)
(0.132757 -0.000251377 0.000100718)
(0.132765 -0.000254678 9.09791e-05)
(0.13277 -0.000256903 6.12387e-05)
(0.132841 -0.000249583 6.12109e-05)
(0.132878 -0.000247889 3.96189e-05)
(0.132971 -0.000244583 3.8385e-05)
(0.133023 -0.00024706 1.33123e-05)
(0.133141 -0.00025269 9.50097e-06)
(0.133217 -0.000268897 -1.26591e-05)
(0.133332 -0.000281056 -9.18312e-06)
(0.13339 -0.000290395 -2.80779e-05)
(0.133497 -0.000294581 -2.64669e-05)
(0.133544 -0.000300723 -3.74409e-05)
(0.133621 -0.000298138 -2.42596e-05)
(0.133626 -0.00029933 -2.34824e-05)
(0.13368 -0.000299136 -3.93925e-06)
(0.133675 -0.000296745 -1.0511e-05)
(0.133724 -0.000296408 3.72977e-06)
(0.133711 -0.000298521 -4.51057e-06)
(0.133751 -0.000294415 1.01031e-05)
(0.133724 -0.000286357 1.5858e-06)
(0.13375 -0.000289889 1.50287e-05)
(0.13371 -0.000290701 1.76668e-05)
(0.133727 -0.000290825 3.54948e-05)
(0.133675 -0.00028993 2.64166e-05)
(0.133669 -0.000295999 3.66885e-05)
(0.133616 -0.000294334 1.8814e-05)
(0.133596 -0.000283119 2.24657e-05)
(0.135501 -0.000276803 -4.9666e-05)
(0.135511 -0.000280165 -3.76667e-05)
(0.135491 -0.000291025 -5.00107e-05)
(0.135507 -0.000289032 -4.89007e-05)
(0.135498 -0.000280564 -6.05423e-05)
(0.135509 -0.000272475 -5.13232e-05)
(0.135473 -0.000270286 -5.32403e-05)
(0.135465 -0.000267733 -4.33549e-05)
(0.135422 -0.000266041 -4.71328e-05)
(0.135412 -0.000264639 -4.08787e-05)
(0.135359 -0.000267351 -4.68989e-05)
(0.135353 -0.000263155 -4.03611e-05)
(0.135316 -0.000260475 -4.12851e-05)
(0.135323 -0.000261886 -2.29436e-05)
(0.135301 -0.000261219 -9.92308e-06)
(0.135307 -0.000247926 1.63118e-05)
(0.135268 -0.000243859 1.96722e-05)
(0.135258 -0.000243307 3.32138e-05)
(0.13523 -0.000239045 3.18389e-05)
(0.135238 -0.000231031 4.86177e-05)
(0.135205 -0.000232448 4.72572e-05)
(0.135208 -0.000235044 5.61245e-05)
(0.135178 -0.000246709 4.03409e-05)
(0.135199 -0.000255374 2.94536e-05)
(0.135217 -0.000261924 7.03918e-06)
(0.13527 -0.000257688 8.39141e-08)
(0.135296 -0.000254944 -2.61836e-05)
(0.135375 -0.00024863 -3.7094e-05)
(0.135405 -0.000248084 -6.416e-05)
(0.135481 -0.000253266 -6.47903e-05)
(0.135493 -0.000264698 -7.73319e-05)
(0.135543 -0.000270656 -6.72666e-05)
(0.135548 -0.000281761 -7.61735e-05)
(0.135594 -0.000281015 -7.23857e-05)
(0.13561 -0.000283863 -7.9004e-05)
(0.135667 -0.000278614 -6.34874e-05)
(0.135674 -0.000286352 -6.37681e-05)
(0.135713 -0.00029117 -4.99723e-05)
(0.135694 -0.000297466 -5.45982e-05)
(0.135711 -0.000294253 -4.53877e-05)
(0.135687 -0.000303438 -5.42167e-05)
(0.135717 -0.00030167 -4.42267e-05)
(0.135691 -0.000307361 -4.97346e-05)
(0.13571 -0.000315055 -4.21481e-05)
(0.135676 -0.000320324 -4.75889e-05)
(0.135684 -0.000306509 -3.87436e-05)
(0.135634 -0.000298842 -5.13832e-05)
(0.135616 -0.000288288 -4.67435e-05)
(0.135567 -0.000284146 -5.45576e-05)
(0.135544 -0.00027224 -4.815e-05)
(0.137282 -0.000360624 -0.000243608)
(0.137291 -0.000364264 -0.000228608)
(0.137262 -0.000370138 -0.000230152)
(0.137273 -0.000369594 -0.000221741)
(0.137262 -0.000359545 -0.000220125)
(0.137288 -0.0003597 -0.000206155)
(0.137283 -0.000356768 -0.00020553)
(0.137314 -0.000349868 -0.000194895)
(0.137305 -0.000343876 -0.000187929)
(0.13733 -0.000347659 -0.000172905)
(0.137328 -0.00034319 -0.000168232)
(0.137374 -0.000338893 -0.00015179)
(0.137377 -0.00033855 -0.000142952)
(0.137418 -0.00034237 -0.00012071)
(0.137422 -0.000334501 -0.000108816)
(0.137458 -0.000320671 -8.71088e-05)
(0.13744 -0.000314787 -8.00508e-05)
(0.137445 -0.000305405 -6.45509e-05)
(0.137422 -0.000301826 -5.56186e-05)
(0.137421 -0.000304819 -4.09674e-05)
(0.137377 -0.000310513 -4.57514e-05)
(0.137355 -0.000317919 -3.62061e-05)
(0.137302 -0.00032587 -4.29718e-05)
(0.137271 -0.000337185 -4.42748e-05)
(0.137244 -0.000343843 -6.69582e-05)
(0.137266 -0.000341245 -8.44269e-05)
(0.137264 -0.000340478 -0.00012626)
(0.137311 -0.000343151 -0.000151053)
(0.137303 -0.000342851 -0.000184285)
(0.137331 -0.000349493 -0.000190441)
(0.137302 -0.000351715 -0.000202212)
(0.137332 -0.000358776 -0.000196935)
(0.137311 -0.00036555 -0.000198019)
(0.137353 -0.0003716 -0.000189837)
(0.137331 -0.000369538 -0.000186912)
(0.137382 -0.000372299 -0.000174035)