/*--------------------------------*- C++ -*----------------------------------*\
| =========                 |                                                 |
| \\      /  F ield         | OpenFOAM: The Open Source CFD Toolbox           |
|  \\    /   O peration     | Version:  2.3.0                                 |
|   \\  /    A nd           | Web:      www.OpenFOAM.org                      |
|    \\/     M anipulation  |                                                 |
\*---------------------------------------------------------------------------*/
FoamFile
{
    version     2.0;
    format      ascii;
    class       volScalarField;
    location    "300";
    object      nuSgs;
}
// * * * * * * * * * * * * * * * * * * * * * * * * * * * * * * * * * * * * * //

dimensions      [0 2 -1 0 0 0 0];

internalField   nonuniform List<scalar> 
90000
(
-9.16875e-09
-1.06607e-08
-9.85439e-09
-5.70413e-09
-8.3386e-11
6.13439e-09
1.2039e-08
1.70012e-08
2.03765e-08
2.22157e-08
2.26067e-08
2.1376e-08
1.8793e-08
1.52262e-08
1.11047e-08
7.29158e-09
4.05186e-09
1.73442e-09
3.25559e-10
-6.94932e-11
3.13109e-10
1.12816e-09
2.4813e-09
3.39205e-09
4.00175e-09
3.78412e-09
3.18723e-09
2.12068e-09
1.01871e-09
1.73602e-11
-1.06963e-09
-2.18807e-09
-3.70189e-09
-5.12378e-09
-6.64874e-09
-7.6856e-09
-7.79607e-09
-7.28549e-09
-5.85001e-09
-3.72745e-09
-1.80791e-09
-2.77867e-10
6.50087e-10
1.47676e-09
2.1961e-09
2.36962e-09
1.36946e-09
-1.10352e-09
-4.07508e-09
-6.63801e-09
-1.03066e-08
-1.16537e-08
-8.97195e-09
-2.1457e-09
6.66016e-09
1.61621e-08
2.50283e-08
3.20874e-08
3.64661e-08
3.83623e-08
3.79e-08
3.5048e-08
3.03517e-08
2.43041e-08
1.78832e-08
1.2096e-08
7.32384e-09
4.02784e-09
2.11516e-09
1.63604e-09
2.23805e-09
3.4479e-09
5.4439e-09
6.90916e-09
7.99401e-09
7.95346e-09
7.31454e-09
5.70534e-09
3.91548e-09
1.9976e-09
-1.80112e-10
-2.50246e-09
-5.38753e-09
-8.04903e-09
-1.07808e-08
-1.26536e-08
-1.30934e-08
-1.24848e-08
-1.02263e-08
-7.16938e-09
-4.47043e-09
-2.14193e-09
-4.70331e-10
1.20344e-09
2.83998e-09
3.57036e-09
2.02257e-09
-1.04186e-09
-4.46925e-09
-7.38721e-09
-2.84057e-09
-2.75124e-09
2.48896e-09
1.17023e-08
2.37112e-08
3.69269e-08
4.95692e-08
5.92237e-08
6.44827e-08
6.57534e-08
6.32082e-08
5.71745e-08
4.87379e-08
3.88532e-08
2.86438e-08
1.97826e-08
1.28364e-08
8.09377e-09
5.50444e-09
5.11508e-09
6.31271e-09
8.46933e-09
1.17698e-08
1.43812e-08
1.65432e-08
1.70037e-08
1.65257e-08
1.45596e-08
1.22269e-08
9.40933e-09
5.94616e-09
1.98926e-09
-2.96833e-09
-7.69989e-09
-1.26168e-08
-1.63302e-08
-1.79567e-08
-1.79548e-08
-1.52368e-08
-1.16081e-08
-8.8009e-09
-6.51212e-09
-5.08288e-09
-3.40868e-09
-1.21754e-09
3.3128e-10
-8.47091e-10
-1.95287e-09
-2.23671e-09
-2.03344e-09
1.69374e-08
2.00061e-08
2.67617e-08
3.64855e-08
5.05883e-08
6.75446e-08
8.46403e-08
9.78449e-08
1.04293e-07
1.04533e-07
9.88451e-08
8.80125e-08
7.40422e-08
5.8648e-08
4.30383e-08
3.01404e-08
2.02588e-08
1.35522e-08
9.96124e-09
9.79887e-09
1.1841e-08
1.52837e-08
2.02499e-08
2.40968e-08
2.73135e-08
2.83047e-08
2.84824e-08
2.72393e-08
2.57959e-08
2.38412e-08
2.09257e-08
1.69927e-08
1.10954e-08
4.87193e-09
-2.31771e-09
-8.7123e-09
-1.26391e-08
-1.44848e-08
-1.22732e-08
-9.17868e-09
-7.7959e-09
-7.58534e-09
-9.29482e-09
-1.09351e-08
-1.12268e-08
-1.06751e-08
-1.0841e-08
-6.66779e-09
1.89057e-09
1.12218e-08
4.3479e-08
5.46448e-08
6.48233e-08
7.5191e-08
9.15249e-08
1.13641e-07
1.37301e-07
1.56596e-07
1.65634e-07
1.64492e-07
1.53773e-07
1.3504e-07
1.11959e-07
8.75762e-08
6.37458e-08
4.49898e-08
3.09297e-08
2.18848e-08
1.68685e-08
1.67161e-08
1.92023e-08
2.32454e-08
2.91334e-08
3.32951e-08
3.655e-08
3.72426e-08
3.78956e-08
3.78784e-08
3.84342e-08
3.9023e-08
3.9094e-08
3.83102e-08
3.46346e-08
2.99204e-08
2.27707e-08
1.47052e-08
8.60365e-09
4.70052e-09
6.31389e-09
9.19946e-09
9.20098e-09
6.78389e-09
-3.30119e-10
-9.11418e-09
-1.69724e-08
-2.30591e-08
-2.77733e-08
-2.11693e-08
-1.44596e-09
2.3278e-08
6.59557e-08
9.43538e-08
1.15554e-07
1.31177e-07
1.52401e-07
1.82527e-07
2.16542e-07
2.46333e-07
2.61163e-07
2.58926e-07
2.4036e-07
2.08225e-07
1.69345e-07
1.29267e-07
9.17259e-08
6.39496e-08
4.39359e-08
3.25856e-08
2.66418e-08
2.69878e-08
3.00794e-08
3.40269e-08
3.93719e-08
4.18589e-08
4.29155e-08
4.07977e-08
3.96164e-08
3.91013e-08
4.03378e-08
4.21438e-08
4.43823e-08
4.74825e-08
4.82576e-08
4.90867e-08
4.72307e-08
4.21339e-08
3.73547e-08
3.41119e-08
3.74847e-08
4.44095e-08
4.78091e-08
4.69213e-08
3.72411e-08
2.20328e-08
4.69045e-09
-1.49068e-08
-3.56069e-08
-3.97235e-08
-1.71759e-08
2.28476e-08
7.16874e-08
1.245e-07
1.68549e-07
2.0057e-07
2.34469e-07
2.783e-07
3.2893e-07
3.77061e-07
4.0545e-07
4.06735e-07
3.79356e-07
3.2661e-07
2.60636e-07
1.92625e-07
1.29408e-07
8.51525e-08
5.48482e-08
4.01251e-08
3.48409e-08
3.82238e-08
4.48534e-08
5.10004e-08
5.65341e-08
5.63651e-08
5.28597e-08
4.42005e-08
3.69074e-08
3.17229e-08
2.99553e-08
2.89734e-08
2.76225e-08
2.81656e-08
2.69787e-08
2.87162e-08
3.26325e-08
3.48243e-08
3.71263e-08
3.98904e-08
4.92975e-08
6.71587e-08
8.23895e-08
9.33975e-08
9.4822e-08
8.72656e-08
7.01911e-08
3.84906e-08
-6.80309e-09
-3.95959e-08
-3.41944e-08
7.66699e-09
4.25411e-08
1.16763e-07
1.93433e-07
2.57875e-07
3.17749e-07
3.83783e-07
4.58054e-07
5.35674e-07
5.938e-07
6.16429e-07
5.92812e-07
5.21799e-07
4.19183e-07
3.06158e-07
1.94867e-07
1.16866e-07
6.35583e-08
3.7797e-08
3.14087e-08
4.01596e-08
5.54884e-08
7.09271e-08
8.39336e-08
8.69286e-08
8.11767e-08
6.48374e-08
4.8506e-08
3.32381e-08
2.32655e-08
1.75427e-08
9.88873e-09
6.76612e-10
-1.65164e-08
-3.59314e-08
-4.66941e-08
-4.88312e-08
-4.27863e-08
-3.33896e-08
-1.67048e-08
1.06138e-08
3.66965e-08
6.41251e-08
9.10351e-08
1.17144e-07
1.33389e-07
1.20983e-07
6.4261e-08
-6.3105e-09
-4.07597e-08
-2.24291e-08
-5.67778e-08
1.82778e-08
1.26553e-07
2.38456e-07
3.41013e-07
4.38383e-07
5.37359e-07
6.49059e-07
7.55872e-07
8.34158e-07
8.53865e-07
7.9753e-07
6.74156e-07
5.13851e-07
3.34287e-07
1.97783e-07
9.51204e-08
3.54747e-08
1.21222e-08
1.86446e-08
4.28059e-08
7.46533e-08
1.08468e-07
1.31751e-07
1.39113e-07
1.27034e-07
1.07706e-07
8.01378e-08
5.41891e-08
3.98395e-08
3.13897e-08
2.22378e-08
-5.04344e-09
-5.89996e-08
-1.20849e-07
-1.6879e-07
-1.90025e-07
-1.91362e-07
-1.77639e-07
-1.65078e-07
-1.61456e-07
-1.54093e-07
-1.2741e-07
-6.60509e-08
2.04596e-08
8.83463e-08
8.06204e-08
8.28244e-09
-6.23987e-08
-8.87097e-08
-2.896e-07
-2.53951e-07
-1.39421e-07
2.1423e-08
1.86698e-07
3.3418e-07
4.61627e-07
5.99715e-07
7.59435e-07
9.25856e-07
1.04734e-06
1.07105e-06
9.79408e-07
8.03615e-07
5.68845e-07
3.70545e-07
2.00711e-07
7.83504e-08
2.33606e-09
-2.55536e-08
-1.22555e-08
3.04242e-08
9.34397e-08
1.56961e-07
2.03633e-07
2.30171e-07
2.36212e-07
2.15644e-07
1.75491e-07
1.36308e-07
1.15233e-07
1.15117e-07
1.12603e-07
6.94502e-08
-2.75554e-08
-1.44285e-07
-2.3304e-07
-2.74788e-07
-2.77664e-07
-2.98604e-07
-3.68902e-07
-4.86874e-07
-5.9827e-07
-6.17492e-07
-5.07548e-07
-3.28907e-07
-2.06406e-07
-1.8895e-07
-2.28173e-07
-2.71056e-07
-7.66603e-07
-7.97729e-07
-7.19793e-07
-5.49207e-07
-3.21879e-07
-9.14355e-08
1.06129e-07
2.86379e-07
4.94082e-07
7.52935e-07
1.01803e-06
1.19214e-06
1.2049e-06
1.07027e-06
8.19129e-07
5.87417e-07
3.73498e-07
1.99946e-07
5.67954e-08
-4.89605e-08
-1.03337e-07
-9.36553e-08
-1.77377e-08
9.50329e-08
2.06746e-07
3.13074e-07
3.84585e-07
4.15629e-07
3.99524e-07
3.44413e-07
2.87517e-07
2.63223e-07
2.73764e-07
2.84298e-07
2.30735e-07
1.11424e-07
-1.75218e-08
-8.73698e-08
-7.58097e-08
-2.89035e-08
-5.71511e-08
-2.46549e-07
-6.19845e-07
-1.0263e-06
-1.25666e-06
-1.2071e-06
-1.01766e-06
-8.50793e-07
-7.55813e-07
-7.27557e-07
-1.6643e-06
-1.84222e-06
-1.88752e-06
-1.74154e-06
-1.4071e-06
-1.01093e-06
-6.4075e-07
-3.34429e-07
-4.98258e-08
2.57731e-07
6.03683e-07
9.18763e-07
1.10038e-06
1.09976e-06
9.2268e-07
7.21873e-07
5.18034e-07
3.47436e-07
1.86017e-07
2.30471e-08
-1.35026e-07
-2.43697e-07
-2.4743e-07
-1.42343e-07
3.4163e-08
2.5838e-07
4.41495e-07
5.8227e-07
6.48055e-07
6.26553e-07
5.5148e-07
4.77266e-07
4.36081e-07
4.41126e-07
4.26753e-07
3.56877e-07
2.41685e-07
1.64099e-07
1.99664e-07
4.13717e-07
6.42267e-07
7.57928e-07
6.04255e-07
2.0365e-07
-3.62939e-07
-8.98025e-07
-1.30894e-06
-1.5413e-06
-1.58824e-06
-1.56656e-06
-1.76329e-06
-2.19916e-06
-2.63425e-06
-2.97896e-06
-3.04299e-06
-2.85623e-06
-2.38343e-06
-1.71869e-06
-1.00965e-06
-4.21481e-07
2.00911e-08
3.09041e-07
4.94867e-07
5.96515e-07
6.12456e-07
5.78208e-07
5.09218e-07
4.31267e-07
3.34593e-07
2.03203e-07
1.69804e-08
-1.98856e-07
-3.61888e-07
-4.09161e-07
-2.9156e-07
-2.37113e-08
2.70926e-07
5.80417e-07
8.09385e-07
9.0217e-07
8.54219e-07
7.46321e-07
6.35643e-07
5.74473e-07
5.1627e-07
4.39816e-07
3.27086e-07
2.1823e-07
2.06971e-07
4.39969e-07
8.64134e-07
1.38546e-06
1.7588e-06
1.87775e-06
1.67611e-06
1.28626e-06
6.8249e-07
-1.03862e-07
-8.57513e-07
-1.36488e-06
-1.00909e-06
-1.30123e-06
-1.75115e-06
-2.3124e-06
-2.65999e-06
-2.81123e-06
-2.83065e-06
-2.86428e-06
-2.66697e-06
-2.03921e-06
-1.19363e-06
-5.00404e-07
-6.17678e-08
1.8116e-07
2.46665e-07
2.17e-07
2.22575e-07
2.91653e-07
3.4713e-07
3.39616e-07
2.45274e-07
5.97248e-08
-1.57183e-07
-3.465e-07
-3.90188e-07
-2.80348e-07
-2.77649e-08
3.58461e-07
7.63083e-07
1.06588e-06
1.16192e-06
1.0905e-06
9.09314e-07
7.46578e-07
6.01737e-07
4.74466e-07
3.5158e-07
2.44726e-07
1.81515e-07
1.95347e-07
4.12934e-07
9.48022e-07
1.68946e-06
2.42575e-06
2.8881e-06
3.02105e-06
2.63465e-06
1.741e-06
6.63014e-07
-1.4019e-07
1.93658e-07
1.81791e-07
4.22186e-07
5.7265e-07
3.87084e-07
-1.75631e-07
-1.06039e-06
-1.98448e-06
-2.34207e-06
-2.22832e-06
-1.81611e-06
-1.33852e-06
-1.05228e-06
-9.75497e-07
-8.78069e-07
-6.54602e-07
-2.59968e-07
1.721e-08
8.04563e-08
1.68456e-07
2.29847e-07
1.96041e-07
8.8156e-08
-6.44853e-08
-1.81141e-07
-2.5032e-07
-1.79221e-07
1.02179e-07
5.62235e-07
1.02435e-06
1.30409e-06
1.36681e-06
1.2398e-06
1.06252e-06
8.59259e-07
6.39813e-07
3.9351e-07
1.84174e-07
7.69536e-08
5.68798e-08
9.23764e-08
2.52675e-07
6.39017e-07
1.34857e-06
2.23256e-06
2.99801e-06
3.1788e-06
2.63171e-06
1.60439e-06
6.81642e-07
5.56953e-07
5.20647e-07
8.27651e-07
1.31666e-06
1.6544e-06
1.52933e-06
8.79276e-07
-4.2254e-08
-9.33517e-07
-1.43912e-06
-1.38642e-06
-1.11317e-06
-9.12129e-07
-8.79665e-07
-1.19527e-06
-1.2293e-06
-1.08686e-06
-9.76681e-07
-6.9537e-07
-2.56788e-07
-2.68788e-08
8.51024e-08
9.15445e-08
2.56663e-08
-4.68065e-08
2.93159e-09
7.53727e-09
2.6745e-08
1.65889e-07
6.49553e-07
1.10383e-06
1.3486e-06
1.34678e-06
1.25296e-06
1.12526e-06
9.81721e-07
7.6213e-07
4.2207e-07
1.97008e-08
-1.83262e-07
-9.17263e-08
-6.86488e-08
2.31011e-08
2.97153e-07
7.99582e-07
1.50569e-06
2.037e-06
2.06817e-06
1.58399e-06
1.01786e-06
5.56489e-07
6.61762e-07
9.18206e-07
1.3729e-06
1.94736e-06
2.3651e-06
2.38206e-06
2.01604e-06
1.35638e-06
6.78844e-07
2.47595e-07
-5.16761e-09
-2.47285e-07
-4.23805e-07
-4.12433e-07
-5.31949e-07
-7.44802e-07
-9.08996e-07
-9.8179e-07
-1.03333e-06
-1.21459e-06
-1.11828e-06
-3.58997e-07
-3.05334e-08
-2.20559e-07
-4.98369e-07
-7.42296e-07
-6.36468e-07
-2.13885e-07
3.39202e-08
3.68295e-07
8.38034e-07
1.07158e-06
1.27174e-06
1.39855e-06
1.42076e-06
1.54741e-06
1.48436e-06
9.14539e-07
-1.82171e-07
-1.07952e-06
-1.15885e-06
-8.38638e-07
-6.08409e-07
-1.65655e-07
4.08201e-07
8.24746e-07
9.42141e-07
8.35453e-07
7.81985e-07
1.92207e-07
2.95783e-07
4.19452e-07
6.00277e-07
9.58416e-07
1.50311e-06
2.02762e-06
2.3613e-06
2.43486e-06
2.29461e-06
2.01903e-06
1.52702e-06
8.18856e-07
1.36757e-07
-9.22825e-08
2.83949e-10
6.28193e-08
1.54703e-08
3.2398e-08
3.73107e-07
1.09611e-06
1.83557e-06
2.20999e-06
1.97208e-06
1.37225e-06
4.3202e-07
-7.63287e-07
-1.39622e-06
-1.36145e-06
-8.35466e-07
-6.3573e-08
4.02015e-07
7.6285e-07
1.02579e-06
1.21424e-06
1.37165e-06
1.56499e-06
1.67002e-06
1.30105e-06
1.10895e-07
-1.43062e-06
-2.33337e-06
-2.30385e-06
-1.71124e-06
-9.19699e-07
2.32898e-07
1.01651e-06
9.09864e-07
5.04816e-07
2.35471e-07
-3.50233e-07
-1.75692e-07
2.9679e-07
6.63284e-07
7.02746e-07
5.99956e-07
7.84074e-07
1.15893e-06
1.52948e-06
1.81484e-06
1.98158e-06
1.93248e-06
1.57131e-06
9.63369e-07
4.26206e-07
3.51525e-07
6.14047e-07
8.68406e-07
1.05562e-06
1.25447e-06
1.72789e-06
2.4522e-06
2.77316e-06
2.36707e-06
1.71656e-06
1.01334e-06
3.30177e-07
-2.62472e-07
-9.64269e-07
-7.53886e-07
6.69949e-08
4.29904e-07
7.39246e-07
1.03961e-06
1.30376e-06
1.43502e-06
1.44197e-06
1.58706e-06
1.43911e-06
3.10588e-07
-1.25351e-06
-2.27748e-06
-2.62379e-06
-2.32302e-06
-1.73627e-06
-1.17256e-06
-7.72992e-08
9.5805e-07
8.31673e-07
6.9537e-09
-1.23366e-06
-6.06313e-07
4.54104e-07
1.45705e-06
2.2164e-06
2.22498e-06
1.43098e-06
7.23633e-07
6.07308e-07
7.23137e-07
9.24811e-07
1.1035e-06
1.11495e-06
9.83367e-07
7.51564e-07
6.11527e-07
8.1438e-07
1.21878e-06
1.60869e-06
1.81076e-06
1.86898e-06
1.81808e-06
1.6642e-06
1.30078e-06
8.64144e-07
4.77774e-07
2.5214e-07
1.53616e-07
-1.44892e-08
-1.57292e-07
4.07584e-07
9.73586e-07
1.03679e-06
1.07519e-06
1.22765e-06
1.3945e-06
1.1598e-06
9.94604e-07
9.82997e-07
5.46147e-07
-7.03264e-07
-1.33781e-06
-1.63589e-06
-1.60406e-06
-1.11838e-06
-8.9089e-07
-1.06581e-06
-4.0514e-08
9.34642e-07
-5.14218e-08
-1.01852e-06
-5.42444e-07
8.31889e-07
2.0718e-06
3.00464e-06
3.44637e-06
3.22928e-06
2.19468e-06
8.41162e-07
1.1673e-07
-1.04278e-08
1.89371e-07
3.02011e-07
2.09443e-07
2.95371e-07
4.43022e-07
7.32691e-07
1.24032e-06
1.78628e-06
2.09502e-06
2.01236e-06
1.44835e-06
7.28159e-07
1.30275e-07
-2.25844e-07
-2.6354e-07
4.09005e-08
4.14203e-07
4.59732e-07
2.28027e-07
5.0171e-07
1.61811e-06
1.74633e-06
1.46326e-06
1.26117e-06
1.2763e-06
1.01212e-06
5.97346e-07
3.68588e-07
2.54707e-07
1.75767e-07
2.56266e-07
2.53317e-07
1.5241e-07
3.73683e-07
7.102e-07
-2.79556e-07
-6.69877e-07
1.0579e-06
9.21207e-07
-1.5324e-07
-3.47041e-07
8.07869e-07
2.04572e-06
2.90412e-06
3.3203e-06
3.36566e-06
2.89959e-06
1.75721e-06
4.89689e-07
-1.74357e-07
-2.33852e-07
-1.16441e-07
-2.43447e-07
-4.66064e-07
-2.5933e-07
2.42242e-07
7.45312e-07
1.37091e-06
1.85388e-06
1.98048e-06
1.39478e-06
4.6953e-07
-2.62701e-07
-6.58288e-07
-5.1261e-07
2.4877e-07
1.03099e-06
1.26364e-06
9.46161e-07
8.282e-07
2.22986e-06
2.91996e-06
2.22622e-06
1.69209e-06
1.41168e-06
1.05404e-06
3.34446e-07
-3.59258e-07
-8.70664e-07
-4.26053e-07
7.91483e-07
1.38695e-06
1.3689e-06
1.27538e-06
1.43152e-06
9.30352e-07
-3.78037e-07
9.18251e-07
1.62831e-06
1.2685e-06
5.0106e-07
4.89538e-07
1.15163e-06
1.82718e-06
2.1839e-06
2.23923e-06
2.10559e-06
1.62939e-06
7.67604e-07
-3.85403e-08
-2.24533e-07
2.1025e-07
7.71736e-07
8.52692e-07
5.71137e-07
3.78051e-07
3.21864e-07
4.96535e-07
7.5331e-07
1.06711e-06
1.26072e-06
9.64379e-07
4.03898e-07
5.54726e-08
1.39042e-07
7.69649e-07
1.35514e-06
1.54573e-06
1.3967e-06
1.0477e-06
9.26041e-07
1.41863e-06
2.02264e-06
2.01549e-06
1.78581e-06
1.33705e-06
4.8943e-07
-5.53861e-07
-1.29546e-06
-1.85522e-07
2.24793e-06
3.08446e-06
2.52185e-06
1.79312e-06
1.37706e-06
7.55827e-07
-3.4739e-07
-1.82147e-09
1.37123e-06
2.17058e-06
1.78792e-06
5.79124e-07
1.13502e-07
3.95444e-07
8.7066e-07
1.12604e-06
1.16729e-06
1.18604e-06
1.10971e-06
6.70694e-07
4.40796e-07
8.55451e-07
1.82519e-06
2.60096e-06
2.49294e-06
1.8472e-06
1.23838e-06
5.761e-07
1.35552e-08
2.55154e-07
9.60462e-07
1.39059e-06
1.10847e-06
7.83434e-07
1.22892e-06
1.75158e-06
1.28035e-06
5.16211e-07
7.83886e-08
-5.68337e-08
-6.0648e-07
-1.2863e-06
2.88819e-07
1.71216e-06
1.98984e-06
1.64445e-06
1.0185e-06
3.49896e-07
1.246e-07
8.33164e-07
1.81614e-06
1.46265e-06
8.04611e-07
6.08832e-07
9.6921e-07
8.10464e-07
3.24079e-08
-2.10288e-07
7.99753e-07
2.44196e-06
2.73072e-06
1.69657e-06
5.10512e-07
1.88442e-07
4.17979e-07
6.00682e-07
4.00814e-07
2.02306e-07
3.36269e-07
5.43741e-07
6.41525e-07
9.91259e-07
1.87254e-06
2.8088e-06
2.96905e-06
2.4727e-06
1.89416e-06
1.43428e-06
3.94655e-07
8.01475e-07
2.20456e-06
3.32894e-06
3.88087e-06
5.09323e-06
6.27944e-06
4.12524e-06
9.61908e-07
-1.04946e-06
-1.42978e-06
-1.32941e-06
-1.52993e-06
-1.36556e-06
9.6396e-08
2.03967e-06
2.92279e-06
2.32566e-06
1.72581e-06
1.59896e-06
2.03e-06
2.10227e-06
1.03131e-06
-1.19722e-07
-6.39836e-07
-2.62909e-07
1.01891e-06
1.81228e-06
1.33029e-06
7.9516e-07
1.13907e-06
2.49564e-06
3.09032e-06
3.0014e-06
2.11959e-06
1.28439e-06
1.01427e-06
1.06893e-06
7.50789e-07
-2.10155e-07
-6.18292e-07
-3.29944e-07
-2.1606e-07
-1.34698e-07
2.12867e-07
9.41488e-07
1.68309e-06
1.88774e-06
1.4907e-06
8.71034e-07
7.12595e-07
1.79232e-06
2.26906e-06
3.16013e-06
4.1039e-06
4.73405e-06
4.35023e-06
2.28329e-06
-5.4585e-07
-1.54546e-06
-8.05228e-07
-5.13089e-07
-6.12922e-07
1.92865e-07
1.80323e-06
2.70797e-06
4.45219e-06
2.7745e-06
1.6589e-06
1.65157e-06
1.21935e-06
4.35316e-07
8.84315e-07
1.49987e-06
1.39831e-06
1.42415e-06
2.07971e-06
2.69136e-06
2.52106e-06
2.01118e-06
1.84777e-06
2.33055e-06
2.91535e-06
3.64064e-06
3.70288e-06
3.0277e-06
2.33672e-06
2.13489e-06
1.90074e-06
-3.23036e-08
-9.55715e-07
-1.5412e-07
5.23614e-07
6.65321e-07
8.48984e-07
1.99668e-06
4.1769e-06
4.50253e-06
3.74645e-06
2.49779e-06
2.50248e-06
4.00339e-06
5.18966e-06
5.0314e-06
3.52857e-06
2.1733e-06
9.79686e-07
-2.22679e-07
-9.98305e-07
-2.13457e-07
1.61202e-06
2.06676e-06
1.94103e-06
2.1005e-06
2.11836e-06
2.03816e-06
2.78267e-06
3.44083e-06
2.76363e-06
1.53447e-06
2.82458e-07
1.18086e-07
2.09052e-06
3.85037e-06
3.51166e-06
2.24621e-06
1.72655e-06
2.22999e-06
2.58422e-06
2.4369e-06
2.16662e-06
5.15644e-07
1.24681e-06
2.9205e-06
3.26878e-06
2.99281e-06
2.53401e-06
2.32413e-06
1.6951e-06
-5.45983e-07
-1.43005e-06
-4.6394e-07
6.49284e-07
5.2227e-07
-1.01245e-07
1.47915e-07
1.84323e-06
4.36516e-06
5.97901e-06
6.93315e-06
6.73031e-06
4.60697e-06
1.56447e-06
7.76995e-08
1.27363e-06
2.90963e-06
3.49943e-06
3.57405e-06
3.75587e-06
4.19366e-06
3.7421e-06
1.86025e-06
4.74506e-07
-4.10069e-07
-1.21804e-06
-2.64578e-06
-1.81194e-06
1.20433e-06
3.40726e-06
3.61336e-06
3.40095e-06
3.44896e-06
3.71845e-06
3.78291e-06
2.73552e-06
6.23771e-07
-8.93856e-07
6.33142e-07
2.94132e-06
3.49161e-06
2.20898e-06
8.51084e-07
1.90785e-06
2.93557e-06
1.91918e-06
1.26238e-06
1.05672e-06
1.15956e-06
1.38325e-06
-7.52555e-08
-3.31322e-07
8.5141e-08
1.04811e-08
-6.8969e-07
-7.95739e-07
-7.21221e-07
-1.37796e-06
-5.0507e-07
2.70142e-06
5.6142e-06
5.89765e-06
3.16516e-06
-2.59513e-08
-2.60446e-06
-1.04913e-06
2.35218e-06
3.50302e-06
3.15162e-06
2.61585e-06
2.08823e-06
9.95937e-07
-1.78336e-06
-3.68183e-06
-2.50718e-06
-6.26969e-07
7.6362e-07
1.89575e-06
2.5088e-06
2.36647e-06
1.53606e-06
1.41354e-06
2.34151e-06
2.48962e-06
2.18097e-06
1.53942e-06
1.91669e-07
-1.66983e-06
-1.07243e-06
2.15197e-06
4.94326e-06
3.81685e-06
3.43631e-06
2.56859e-06
1.55567e-06
6.92875e-07
4.9578e-07
6.74515e-07
2.07138e-06
4.30337e-06
5.4047e-06
3.30877e-06
6.2444e-07
3.9109e-07
2.74633e-06
5.52449e-06
7.4169e-06
8.25227e-06
7.53571e-06
5.93832e-06
4.13001e-06
3.12852e-06
2.81096e-06
1.14343e-06
-1.44654e-06
5.70641e-07
2.17072e-06
1.4375e-06
1.28189e-06
2.04667e-06
1.27999e-06
4.10766e-07
-8.45972e-07
3.26005e-07
4.25862e-06
5.95048e-06
4.50425e-06
2.52259e-06
1.7202e-06
1.84275e-06
1.81568e-06
1.74661e-06
1.30967e-06
4.08454e-07
6.62277e-07
4.19193e-07
-7.25892e-07
-4.17418e-07
4.12588e-07
-8.16998e-07
2.39252e-06
4.37534e-06
2.83914e-08
3.9359e-08
4.45918e-08
4.21852e-08
3.84109e-08
3.64886e-08
3.64112e-08
3.72279e-08
3.73544e-08
3.60736e-08
3.27106e-08
2.77922e-08
2.21433e-08
1.82992e-08
1.40895e-08
1.20694e-08
1.14714e-08
1.20165e-08
1.33045e-08
1.54347e-08
1.74549e-08
1.87766e-08
1.94681e-08
1.86923e-08
1.75641e-08
1.52229e-08
1.35876e-08
1.34092e-08
1.4003e-08
1.50885e-08
1.56637e-08
1.60304e-08
1.58374e-08
1.53241e-08
1.42622e-08
1.23065e-08
9.1285e-09
4.67249e-09
-1.48225e-10
-5.96906e-09
-1.20314e-08
-1.92251e-08
-2.76435e-08
-3.55545e-08
-4.10447e-08
-4.21907e-08
-3.83887e-08
-2.81949e-08
-1.14903e-08
8.83317e-09
5.15668e-08
7.15505e-08
8.10034e-08
7.81604e-08
7.26963e-08
6.90239e-08
6.74474e-08
6.67863e-08
6.48881e-08
6.12799e-08
5.49338e-08
4.68124e-08
3.82185e-08
3.16384e-08
2.68175e-08
2.44356e-08
2.38549e-08
2.46752e-08
2.63706e-08
2.90314e-08
3.1314e-08
3.26044e-08
3.31839e-08
3.18867e-08
3.01678e-08
2.74744e-08
2.63667e-08
2.72594e-08
2.92271e-08
3.16574e-08
3.32296e-08
3.42533e-08
3.42353e-08
3.34915e-08
3.16168e-08
2.81775e-08
2.26268e-08
1.49387e-08
6.70037e-09
-3.35246e-09
-1.42223e-08
-2.68944e-08
-4.15764e-08
-5.53962e-08
-6.5128e-08
-6.73114e-08
-6.08943e-08
-4.38998e-08
-1.57189e-08
1.84164e-08
8.15228e-08
1.20199e-07
1.40679e-07
1.40916e-07
1.34735e-07
1.28158e-07
1.22789e-07
1.17852e-07
1.1068e-07
1.01606e-07
8.94604e-08
7.60037e-08
6.33703e-08
5.4651e-08
4.88058e-08
4.66932e-08
4.69543e-08
4.8439e-08
5.02888e-08
5.29219e-08
5.47694e-08
5.53792e-08
5.53665e-08
5.28508e-08
5.00879e-08
4.64738e-08
4.57715e-08
4.85187e-08
5.32883e-08
5.89488e-08
6.393e-08
6.81363e-08
7.07857e-08
7.20939e-08
7.12163e-08
6.76576e-08
6.06701e-08
5.00302e-08
3.84951e-08
2.37904e-08
7.27266e-09
-1.29487e-08
-3.77561e-08
-6.33955e-08
-8.49737e-08
-9.6184e-08
-9.39127e-08
-7.36677e-08
-3.25778e-08
2.25835e-08
8.56204e-08
1.55787e-07
1.99817e-07
2.13271e-07
2.11829e-07
2.04217e-07
1.94456e-07
1.83469e-07
1.68027e-07
1.49405e-07
1.27116e-07
1.05011e-07
8.65081e-08
7.48083e-08
6.85111e-08
6.86579e-08
7.24926e-08
7.7556e-08
8.16259e-08
8.55136e-08
8.73749e-08
8.67769e-08
8.44684e-08
7.77197e-08
7.01118e-08
6.13561e-08
5.77468e-08
6.03494e-08
6.77446e-08
7.82005e-08
8.99606e-08
1.02246e-07
1.13504e-07
1.23345e-07
1.29761e-07
1.31805e-07
1.28642e-07
1.19883e-07
1.09175e-07
9.48265e-08
7.75831e-08
5.35505e-08
2.00178e-08
-1.9644e-08
-6.09208e-08
-9.60366e-08
-1.18928e-07
-1.17201e-07
-7.89519e-08
-6.86633e-09
4.35498e-08
1.56697e-07
2.42298e-07
2.86386e-07
3.0215e-07
3.00695e-07
2.8913e-07
2.71917e-07
2.44903e-07
2.09971e-07
1.69088e-07
1.29969e-07
9.9277e-08
8.07386e-08
7.24949e-08
7.64086e-08
8.80318e-08
1.03016e-07
1.16189e-07
1.27729e-07
1.34435e-07
1.35194e-07
1.29994e-07
1.15142e-07
9.61749e-08
7.3253e-08
5.84574e-08
5.34029e-08
5.7865e-08
6.99449e-08
8.79093e-08
1.11206e-07
1.37373e-07
1.64762e-07
1.88745e-07
2.05886e-07
2.14608e-07
2.14797e-07
2.11108e-07
2.06168e-07
1.98606e-07
1.80566e-07
1.44432e-07
9.38204e-08
3.41971e-08
-2.86695e-08
-9.12633e-08
-1.38528e-07
-1.4048e-07
-7.74138e-08
-4.15807e-08
1.03901e-07
2.42368e-07
3.39023e-07
3.94184e-07
4.16138e-07
4.1305e-07
3.94099e-07
3.54501e-07
2.95951e-07
2.24551e-07
1.53137e-07
9.65696e-08
6.23536e-08
4.46235e-08
4.92244e-08
6.95896e-08
9.96777e-08
1.31045e-07
1.62231e-07
1.86664e-07
2.00534e-07
2.00597e-07
1.80073e-07
1.45979e-07
9.96595e-08
6.26809e-08
3.70106e-08
2.50818e-08
2.6228e-08
3.8929e-08
6.51634e-08
1.03827e-07
1.53005e-07
2.04712e-07
2.48807e-07
2.7934e-07
2.94623e-07
3.02184e-07
3.13514e-07
3.27959e-07
3.34913e-07
3.19196e-07
2.75433e-07
2.04719e-07
1.12396e-07
1.93187e-08
-7.68842e-08
-1.52457e-07
-1.4918e-07
-1.19832e-07
1.02882e-08
1.80918e-07
3.39797e-07
4.59207e-07
5.31763e-07
5.58918e-07
5.52663e-07
5.07795e-07
4.25212e-07
3.13925e-07
1.93295e-07
9.10452e-08
2.53019e-08
-1.72946e-08
-2.29894e-08
-2.39496e-09
3.82502e-08
8.95742e-08
1.49822e-07
2.09038e-07
2.58232e-07
2.8642e-07
2.78196e-07
2.36875e-07
1.67495e-07
1.0219e-07
4.43155e-08
1.64591e-09
-2.48571e-08
-3.78471e-08
-3.18532e-08
-2.25942e-09
5.44221e-08
1.31578e-07
2.10344e-07
2.72945e-07
3.07802e-07
3.23414e-07
3.39348e-07
3.6873e-07
4.08207e-07
4.45002e-07
4.55899e-07
4.16844e-07
3.05735e-07
1.71179e-07
4.48817e-08
-7.31037e-08
-1.49001e-07
-1.40631e-07
-7.68023e-08
7.32163e-08
2.71413e-07
4.60935e-07
6.04109e-07
6.83368e-07
7.09826e-07
6.7715e-07
5.85468e-07
4.40776e-07
2.69102e-07
1.09753e-07
-3.05362e-09
-8.73922e-08
-1.18972e-07
-1.1682e-07
-8.38197e-08
-2.65644e-08
5.55115e-08
1.53419e-07
2.56674e-07
3.44157e-07
3.84768e-07
3.6444e-07
2.90179e-07
2.02745e-07
1.11661e-07
3.46257e-08
-2.69165e-08
-7.99694e-08
-1.18747e-07
-1.31672e-07
-1.02999e-07
-2.67065e-08
7.76984e-08
1.78441e-07
2.41849e-07
2.62445e-07
2.56898e-07
2.61789e-07
2.94919e-07
3.66882e-07
4.55451e-07
5.13349e-07
4.64831e-07
3.05978e-07
1.23384e-07
-4.87527e-09
-9.4889e-08
-1.6031e-07
-1.5164e-07
-5.08712e-08
1.54788e-07
3.98954e-07
6.0585e-07
7.29765e-07
7.83861e-07
7.69938e-07
6.92328e-07
5.45453e-07
3.503e-07
1.49926e-07
-3.49454e-09
-1.24882e-07
-1.88266e-07
-2.26558e-07
-2.33018e-07
-2.00683e-07
-1.22169e-07
-4.73483e-09
1.45263e-07
3.06305e-07
4.33357e-07
4.78561e-07
4.38866e-07
3.52667e-07
2.45546e-07
1.48031e-07
6.53742e-08
-1.73085e-08
-1.04104e-07
-1.84999e-07
-2.2872e-07
-1.99946e-07
-9.85442e-08
4.17536e-08
1.58337e-07
2.04343e-07
1.7326e-07
1.12659e-07
6.74951e-08
8.67384e-08
1.82261e-07
3.20939e-07
3.88336e-07
2.75794e-07
7.10443e-08
-6.68161e-08
-1.23058e-07
-2.86454e-07
-2.91323e-07
-2.29807e-07
-1.90981e-08
2.94462e-07
5.68711e-07
7.17837e-07
7.66421e-07
7.45543e-07
6.79876e-07
5.63269e-07
3.92389e-07
1.92338e-07
2.41922e-08
-1.03111e-07
-1.77575e-07
-2.4974e-07
-3.23427e-07
-3.71327e-07
-3.53105e-07
-2.59503e-07
-9.56174e-08
1.18303e-07
3.37244e-07
4.83055e-07
5.28176e-07
4.8237e-07
3.93231e-07
2.99471e-07
2.21864e-07
1.4799e-07
6.43915e-08
-4.76614e-08
-1.72412e-07
-2.49185e-07
-2.12696e-07
-5.13707e-08
1.60671e-07
3.08174e-07
3.31665e-07
2.16435e-07
1.90225e-08
-1.42187e-07
-1.71078e-07
-6.7494e-08
4.21875e-08
-2.17069e-08
-2.11791e-07
-3.25225e-07
-3.14201e-07
-7.29362e-07
-7.64944e-07
-7.96798e-07
-5.19784e-07
-1.73904e-08
4.41268e-07
6.82482e-07
7.49946e-07
7.41086e-07
6.98943e-07
6.13806e-07
4.66155e-07
2.80871e-07
1.11948e-07
-1.54356e-08
-7.96769e-08
-1.39817e-07
-2.38176e-07
-3.71776e-07
-4.79078e-07
-5.05999e-07
-4.16931e-07
-2.15945e-07
5.16966e-08
2.92059e-07
4.51552e-07
4.91817e-07
4.70029e-07
4.1557e-07
3.59956e-07
3.04591e-07
2.59681e-07
1.94535e-07
9.1127e-08
-4.07245e-08
-1.10508e-07
-1.75474e-08
2.48544e-07
5.60345e-07
8.39094e-07
9.07799e-07
7.35492e-07
3.72045e-07
2.74693e-08
-1.1899e-07
-1.01229e-07
-2.41198e-07
-5.62449e-07
-7.66031e-07
-7.93558e-07
-9.89878e-07
-1.19584e-06
-1.40594e-06
-1.74607e-06
-1.65165e-06
-7.30101e-07
2.5627e-07
5.09297e-07
6.13439e-07
7.31954e-07
8.37212e-07
7.96069e-07
5.64808e-07
2.79658e-07
8.97405e-08
2.16492e-08
-3.08683e-09
-5.2107e-08
-1.64505e-07
-3.18724e-07
-4.71302e-07
-5.40178e-07
-4.77969e-07
-2.96529e-07
-5.77126e-08
1.71578e-07
3.14433e-07
4.10604e-07
4.57995e-07
4.66665e-07
4.27634e-07
3.87342e-07
3.46789e-07
3.06803e-07
2.14912e-07
1.10396e-07
9.42165e-08
2.48269e-07
5.43834e-07
9.78633e-07
1.35116e-06
1.54776e-06
1.45339e-06
1.19294e-06
1.02432e-06
1.11381e-06
1.01134e-06
4.10497e-07
-2.56349e-07
-6.91315e-07
-8.24864e-08
-2.98842e-07
-5.69212e-07
-1.04365e-06
-1.17877e-06
-1.31447e-06
-1.57371e-06
-1.49519e-06
-3.31347e-07
2.65726e-07
7.32856e-07
1.039e-06
1.05718e-06
7.51584e-07
3.59643e-07
1.10989e-07
6.22659e-08
6.36348e-08
1.8327e-08
-7.73928e-08
-2.14243e-07
-3.37164e-07
-3.80324e-07
-3.5e-07
-2.67993e-07
-1.3907e-07
1.88298e-08
2.10586e-07
3.98181e-07
5.3957e-07
5.6467e-07
5.24199e-07
4.50865e-07
4.10758e-07
3.54224e-07
2.61538e-07
1.82784e-07
2.0635e-07
3.48317e-07
6.25433e-07
9.61602e-07
1.32728e-06
1.60132e-06
1.7665e-06
1.9486e-06
2.42658e-06
2.77456e-06
2.32018e-06
1.29597e-06
4.65744e-07
9.11877e-07
6.20052e-07
2.46595e-08
-1.05468e-06
-1.67929e-06
-1.37583e-06
-1.23164e-06
-1.56463e-06
-1.96619e-06
-8.02063e-07
3.76348e-07
9.681e-07
1.19966e-06
1.15602e-06
1.02963e-06
7.20868e-07
3.78494e-07
2.76472e-07
2.45252e-07
1.50148e-07
1.67538e-08
-1.04293e-07
-1.5221e-07
-1.50603e-07
-1.79942e-07
-2.05982e-07
-1.60327e-07
-1.38987e-08
2.43746e-07
5.61522e-07
7.46888e-07
7.46927e-07
6.09451e-07
4.94824e-07
4.272e-07
3.66136e-07
2.97069e-07
2.96748e-07
4.09778e-07
5.89256e-07
6.69635e-07
7.99225e-07
1.00088e-06
1.29641e-06
1.73202e-06
2.51556e-06
3.37626e-06
3.43867e-06
2.55016e-06
1.56056e-06
1.15804e-06
1.20132e-06
1.317e-06
1.06124e-06
2.04273e-07
-9.77486e-07
-1.99845e-06
-2.40822e-06
-2.28058e-06
-1.84666e-06
-5.08856e-07
6.97049e-07
1.12833e-06
9.39042e-07
8.82188e-07
8.16272e-07
6.64639e-07
5.22197e-07
6.09075e-07
6.16791e-07
4.88289e-07
3.56577e-07
2.51596e-07
2.37372e-07
1.4268e-07
-8.92227e-08
-2.73082e-07
-2.17861e-07
4.93869e-08
4.73061e-07
9.65012e-07
1.15122e-06
9.43507e-07
6.66811e-07
5.50426e-07
5.65668e-07
5.51239e-07
4.45432e-07
3.91453e-07
7.53118e-07
1.16234e-06
1.20808e-06
8.91723e-07
8.24124e-07
1.04022e-06
1.58597e-06
2.40578e-06
2.89983e-06
2.52447e-06
1.73349e-06
6.54917e-07
6.38417e-07
8.63565e-07
1.05201e-06
8.23462e-07
1.06949e-07
-9.2664e-07
-1.85023e-06
-2.21164e-06
-1.98194e-06
-9.71089e-07
4.09092e-07
1.16229e-06
1.18491e-06
6.51051e-07
3.90375e-07
2.76205e-07
1.90902e-07
4.12252e-07
8.30297e-07
8.62548e-07
8.8944e-07
8.89275e-07
6.12273e-07
3.35785e-07
-9.73687e-07
-3.67672e-07
-3.32722e-07
-6.66825e-07
1.48746e-07
8.95094e-07
1.5885e-06
1.50626e-06
9.54415e-07
6.20303e-07
7.50519e-07
9.53887e-07
7.97305e-07
3.40852e-07
1.58203e-07
6.51074e-07
1.49202e-06
1.80391e-06
1.29168e-06
9.82286e-07
1.14518e-06
1.50747e-06
1.83085e-06
1.65577e-06
1.10033e-06
3.21457e-07
1.59417e-07
1.79875e-07
3.26692e-07
4.93811e-07
5.3265e-07
3.4832e-07
2.79265e-09
-4.61131e-07
-7.90153e-07
-5.4444e-07
2.94156e-07
1.14434e-06
1.49141e-06
1.38286e-06
7.9463e-07
1.67968e-07
-2.08697e-07
-2.82716e-07
2.62271e-08
4.22607e-07
8.20604e-07
1.26271e-06
5.41985e-07
2.23554e-07
-8.23028e-07
-6.29971e-07
3.67717e-08
-4.81869e-07
-9.13748e-07
1.58239e-08
7.81535e-07
1.30494e-06
1.23301e-06
8.71699e-07
7.67782e-07
1.23632e-06
1.22904e-06
-2.62156e-08
-1.46789e-06
-1.8294e-06
-1.06839e-06
1.1498e-07
1.00336e-06
1.17836e-06
1.18529e-06
1.64674e-06
1.57339e-06
1.12108e-06
5.43268e-07
2.06435e-07
1.6456e-07
6.10636e-07
9.69943e-07
8.9033e-07
6.78948e-07
5.76438e-07
5.79663e-07
5.4005e-07
4.14577e-07
3.33176e-07
4.50018e-07
8.43243e-07
1.33862e-06
1.59285e-06
1.39432e-06
8.49617e-07
2.86067e-07
-4.87454e-08
1.92322e-07
7.95092e-07
1.52944e-06
2.39544e-06
2.6883e-06
2.45106e-06
1.75013e-06
9.97082e-07
3.9489e-07
-3.48339e-07
-9.54299e-07
-2.17589e-07
5.86911e-07
9.35939e-07
1.06356e-06
1.03393e-06
7.96301e-07
8.44024e-07
9.46272e-07
4.09552e-08
-1.49209e-06
-2.45989e-06
-2.36546e-06
-1.43973e-06
-9.58445e-08
1.04543e-06
1.38934e-06
1.83734e-06
2.29578e-06
1.6961e-06
8.37616e-07