/*--------------------------------*- C++ -*----------------------------------*\
| =========                 |                                                 |
| \\      /  F ield         | OpenFOAM: The Open Source CFD Toolbox           |
|  \\    /   O peration     | Version:  2.3.0                                 |
|   \\  /    A nd           | Web:      www.OpenFOAM.org                      |
|    \\/     M anipulation  |                                                 |
\*---------------------------------------------------------------------------*/
FoamFile
{
    version     2.0;
    format      ascii;
    class       volScalarField;
    location    "300";
    object      p;
}
// * * * * * * * * * * * * * * * * * * * * * * * * * * * * * * * * * * * * * //

dimensions      [0 2 -2 0 0 0 0];

internalField   nonuniform List<scalar> 
90000
(
4.47026e-06
3.77169e-06
2.62448e-06
3.38387e-07
-4.03122e-07
8.93032e-07
3.14603e-06
5.67538e-06
8.01122e-06
1.01207e-05
1.22189e-05
1.40136e-05
1.53577e-05
1.57878e-05
1.5475e-05
1.48454e-05
1.37746e-05
1.21252e-05
9.82801e-06
7.66484e-06
6.80562e-06
7.87868e-06
1.10236e-05
1.47458e-05
1.7263e-05
1.73506e-05
1.49795e-05
1.12096e-05
7.40284e-06
4.81365e-06
3.77559e-06
4.05271e-06
4.78909e-06
5.2588e-06
4.84422e-06
3.37558e-06
1.56235e-06
1.34622e-07
4.54623e-09
1.44582e-06
4.27438e-06
8.20867e-06
1.19701e-05
1.47074e-05
1.59727e-05
1.47837e-05
1.09871e-05
7.89647e-06
5.98139e-06
5.08563e-06
4.54769e-06
3.82842e-06
2.62962e-06
2.62856e-07
-4.84207e-07
8.11115e-07
3.06762e-06
5.61233e-06
7.96029e-06
1.00808e-05
1.21936e-05
1.40084e-05
1.5373e-05
1.58185e-05
1.55097e-05
1.48843e-05
1.38237e-05
1.21697e-05
9.86432e-06
7.68526e-06
6.80768e-06
7.86475e-06
1.10062e-05
1.47394e-05
1.72717e-05
1.73717e-05
1.50042e-05
1.12395e-05
7.42622e-06
4.8327e-06
3.79744e-06
4.08474e-06
4.83625e-06
5.31916e-06
4.91327e-06
3.43808e-06
1.60817e-06
1.60451e-07
7.6452e-09
1.42257e-06
4.2519e-06
8.1949e-06
1.19659e-05
1.47102e-05
1.59953e-05
1.48105e-05
1.10385e-05
8.01133e-06
6.08845e-06
5.18095e-06
4.59268e-06
3.7986e-06
2.49261e-06
3.93905e-08
-6.98589e-07
6.23557e-07
2.92167e-06
5.51195e-06
7.89586e-06
1.00456e-05
1.21918e-05
1.40446e-05
1.54446e-05
1.59122e-05
1.56031e-05
1.49789e-05
1.39144e-05
1.22487e-05
9.92033e-06
7.70398e-06
6.78853e-06
7.81602e-06
1.09556e-05
1.47128e-05
1.72729e-05
1.73961e-05
1.50387e-05
1.12804e-05
7.44905e-06
4.84589e-06
3.81489e-06
4.12191e-06
4.90008e-06
5.40469e-06
5.00888e-06
3.51484e-06
1.64754e-06
1.5804e-07
-3.53231e-08
1.35248e-06
4.19123e-06
8.15977e-06
1.19586e-05
1.47262e-05
1.60631e-05
1.49303e-05
1.11967e-05
8.20573e-06
6.24927e-06
5.2927e-06
4.60397e-06
3.66274e-06
2.18184e-06
-3.604e-07
-1.07678e-06
3.01381e-07
2.67637e-06
5.35087e-06
7.80086e-06
1.00036e-05
1.22077e-05
1.41213e-05
1.55743e-05
1.60726e-05
1.57591e-05
1.51328e-05
1.40544e-05
1.23658e-05
9.99796e-06
7.72026e-06
6.74463e-06
7.72641e-06
1.08634e-05
1.46567e-05
1.72584e-05
1.74168e-05
1.50774e-05
1.13299e-05
7.46882e-06
4.85162e-06
3.82742e-06
4.16541e-06
4.98399e-06
5.51976e-06
5.13555e-06
3.60895e-06
1.67964e-06
1.22692e-07
-1.32068e-07
1.23207e-06
4.08696e-06
8.09708e-06
1.19414e-05
1.47515e-05
1.61676e-05
1.51415e-05
1.14787e-05
8.48887e-06
6.47363e-06
5.42724e-06
4.57875e-06
3.41384e-06
1.69652e-06
-9.38744e-07
-1.62627e-06
-1.6951e-07
2.31322e-06
5.10665e-06
7.65158e-06
9.93155e-06
1.22182e-05
1.42171e-05
1.57438e-05
1.62856e-05
1.59837e-05
1.53342e-05
1.42374e-05
1.25175e-05
1.00974e-05
7.73648e-06
6.67738e-06
7.59461e-06
1.07227e-05
1.4558e-05
1.72106e-05
1.74166e-05
1.51074e-05
1.13844e-05
7.48457e-06
4.85171e-06
3.83735e-06
4.21681e-06
5.08853e-06
5.66297e-06
5.29097e-06
3.71849e-06
1.70114e-06
5.19044e-08
-2.82307e-07
1.06666e-06
3.94384e-06
8.01187e-06
1.19213e-05
1.47916e-05
1.63172e-05
1.54546e-05
1.18858e-05
8.85288e-06
6.75566e-06
5.58233e-06
4.50786e-06
3.06333e-06
1.05947e-06
-1.68047e-06
-2.34016e-06
-7.96059e-07
1.81317e-06
4.75311e-06
7.41626e-06
9.79556e-06
1.21873e-05
1.42984e-05
1.59234e-05
1.65292e-05
1.62252e-05
1.55662e-05
1.445e-05
1.2695e-05
1.02141e-05
7.75177e-06
6.58531e-06
7.41617e-06
1.05229e-05
1.43975e-05
1.71053e-05
1.73779e-05
1.51066e-05
1.1437e-05
7.49429e-06
4.8519e-06
3.85461e-06
4.28746e-06
5.22485e-06
5.84143e-06
5.47885e-06
3.84481e-06
1.70772e-06
-6.01823e-08
-4.92449e-07
8.53111e-07
3.7611e-06
7.90933e-06
1.1914e-05
1.48691e-05
1.65264e-05
1.58722e-05
1.2396e-05
9.25224e-06
7.04412e-06
5.7245e-06
4.32078e-06
2.60915e-06
3.10766e-07
-2.54986e-06
-3.19909e-06
-1.58048e-06
1.15937e-06
4.2642e-06
7.06246e-06
9.55859e-06
1.20742e-05
1.43296e-05
1.608e-05
1.67792e-05
1.64801e-05
1.58148e-05
1.46802e-05
1.28899e-05
1.03431e-05
7.76193e-06
6.46083e-06
7.17826e-06
1.02429e-05
1.41444e-05
1.69436e-05
1.72469e-05
1.50314e-05
1.1471e-05
7.48705e-06
4.85297e-06
3.88905e-06
4.39703e-06
5.42414e-06
6.08947e-06
5.73455e-06
4.02419e-06
1.72665e-06
-1.92453e-07
-7.55259e-07
5.81656e-07
3.51294e-06
7.75333e-06
1.1892e-05
1.49783e-05
1.68091e-05
1.64325e-05
1.30207e-05
9.6242e-06
7.21552e-06
5.73078e-06
3.83898e-06
1.96505e-06
-5.27763e-07
-3.49308e-06
-4.17173e-06
-2.53087e-06
3.22386e-07
3.60334e-06
6.54543e-06
9.18389e-06
1.18372e-05
1.42824e-05
1.61898e-05
1.7019e-05
1.67372e-05
1.60743e-05
1.49309e-05
1.31117e-05
1.04968e-05
7.77385e-06
6.29859e-06
6.86418e-06
9.85311e-06
1.37577e-05
1.66084e-05
1.69861e-05
1.48351e-05
1.1451e-05
7.4386e-06
4.83544e-06
3.93604e-06
4.55192e-06
5.70977e-06
6.44316e-06
6.11532e-06
4.33036e-06
1.83257e-06
-2.65939e-07
-1.00533e-06
3.08209e-07
3.23264e-06
7.53663e-06
1.17807e-05
1.49916e-05
1.70142e-05
1.7062e-05
1.38105e-05
1.00481e-05
7.23306e-06
5.43537e-06
3.00093e-06
1.02664e-06
-1.46977e-06
-4.46035e-06
-5.21684e-06
-3.66006e-06
-7.51898e-07
2.70247e-06
5.79962e-06
8.61039e-06
1.14316e-05
1.41228e-05
1.62333e-05
1.72413e-05
1.69812e-05
1.63385e-05
1.52119e-05
1.33946e-05
1.07261e-05
7.83282e-06
6.12183e-06
6.46713e-06
9.32283e-06
1.31936e-05
1.60949e-05
1.65608e-05
1.45115e-05
1.13482e-05
7.33492e-06
4.78372e-06
3.96533e-06
4.71801e-06
6.03882e-06
6.92728e-06
6.66915e-06
4.83816e-06
2.08553e-06
-2.2091e-07
-1.20087e-06
8.48756e-08
3.0137e-06
7.36745e-06
1.16814e-05
1.49686e-05
1.71193e-05
1.7559e-05
1.45577e-05
1.05226e-05
7.26553e-06
4.94328e-06
2.09153e-06
-6.5138e-08
-2.43312e-06
-5.39132e-06
-6.28654e-06
-4.98999e-06
-2.14416e-06
1.47085e-06
4.74429e-06
7.79168e-06
1.08253e-05
1.38108e-05
1.6166e-05
1.74085e-05
1.71798e-05
1.6571e-05
1.54927e-05
1.37491e-05
1.10988e-05
8.03434e-06
6.02666e-06
6.04297e-06
8.64932e-06
1.2408e-05
1.53578e-05
1.59305e-05
1.40344e-05
1.12239e-05
7.17504e-06
4.70032e-06
3.98181e-06
4.90435e-06
6.41979e-06
7.48726e-06
7.34793e-06
5.48133e-06
2.63305e-06
1.34579e-08
-1.32218e-06
-1.76154e-07
2.78137e-06
7.25434e-06
1.17286e-05
1.5159e-05
1.73929e-05
1.80889e-05
1.52907e-05
1.09288e-05
7.36819e-06
4.53946e-06
1.44972e-06
-1.00718e-06
-3.20617e-06
-6.18423e-06
-7.29007e-06
-6.46576e-06
-3.8592e-06
-1.67638e-07
3.2362e-06
6.58066e-06
9.90965e-06
1.33107e-05
1.59964e-05
1.75322e-05
1.73176e-05
1.67007e-05
1.5646e-05
1.40698e-05
1.15624e-05
8.43476e-06
6.1417e-06
5.73211e-06
7.92721e-06
1.14299e-05
1.43584e-05
1.50727e-05
1.33663e-05
1.05112e-05
6.92439e-06
4.53739e-06
3.97863e-06
5.10322e-06
6.84439e-06
8.14553e-06
8.20831e-06
6.38362e-06
3.41498e-06
4.40633e-07
-1.33201e-06
-6.01416e-07
2.21074e-06
6.82088e-06
1.15714e-05
1.53894e-05
1.80447e-05
1.86597e-05
1.6465e-05
1.16837e-05
7.7642e-06
4.42515e-06
1.22948e-06
-1.59571e-06
-3.75248e-06
-6.74305e-06
-8.00809e-06
-7.89711e-06
-5.71185e-06
-2.07726e-06
1.34784e-06
4.98554e-06
8.50593e-06
1.22099e-05
1.52381e-05
1.73059e-05
1.73359e-05
1.6823e-05
1.57368e-05
1.42253e-05
1.19051e-05
8.87464e-06
6.46182e-06
5.67451e-06
7.34453e-06
1.04185e-05
1.3186e-05
1.39996e-05
1.2499e-05
9.75545e-06
6.54211e-06
4.29394e-06
3.9199e-06
5.30158e-06
7.23608e-06
8.74929e-06
9.06065e-06
7.42473e-06
4.53908e-06
1.30018e-06
-1.00648e-06
-9.29529e-07
1.37836e-06
6.002e-06
1.09262e-05
1.52585e-05
1.86512e-05
1.97931e-05
1.77009e-05
1.31116e-05
8.79939e-06
4.82797e-06
1.11637e-06
-2.17947e-06
-4.54116e-06
-7.53383e-06
-8.31588e-06
-8.82688e-06
-7.03651e-06
-3.8368e-06
-8.49624e-07
2.98306e-06
6.73142e-06
1.06751e-05
1.38377e-05
1.62357e-05
1.65662e-05
1.64696e-05
1.56414e-05
1.42687e-05
1.20924e-05
9.1924e-06
6.75919e-06
5.7438e-06
6.95768e-06
9.56155e-06
1.20747e-05
1.29122e-05
1.15742e-05
8.94076e-06
5.98507e-06
4.12251e-06
3.72193e-06
5.5501e-06
7.76742e-06
9.45709e-06
9.94771e-06
8.38824e-06
5.54571e-06
2.19763e-06
-3.15642e-07
-8.5722e-07
7.33368e-07
5.23653e-06
1.00928e-05
1.49188e-05
1.91833e-05
2.13151e-05
1.96944e-05
1.51845e-05
1.04245e-05
5.52805e-06
1.31678e-06
-2.67466e-06
-5.33109e-06
-7.45738e-06
-8.24893e-06
-8.78867e-06
-7.29222e-06
-4.42431e-06
-3.21002e-06
5.40376e-07
4.53289e-06
8.83588e-06
1.20652e-05
1.46102e-05
1.53367e-05
1.56997e-05
1.51975e-05
1.39936e-05
1.20301e-05
9.38542e-06
7.03995e-06
5.84315e-06
6.62189e-06
8.69232e-06
1.08506e-05
1.16925e-05
1.05779e-05
8.16777e-06
5.42603e-06
3.79119e-06
3.54144e-06
5.74118e-06
8.21463e-06
1.02135e-05
1.10407e-05
9.67915e-06
6.84168e-06
3.20674e-06
2.94277e-07
-1.1163e-06
1.35198e-06
4.77169e-06
9.57509e-06
1.51432e-05
1.99173e-05
2.33346e-05
2.24955e-05
1.80324e-05
1.2794e-05
6.76176e-06
2.05132e-06
-2.57026e-06
-5.46684e-06
-7.12097e-06
-7.66523e-06
-7.75738e-06
-6.79941e-06
-5.41665e-06
-3.94526e-06
-1.35943e-06
2.32858e-06
6.84662e-06
1.04275e-05
1.33462e-05
1.4441e-05
1.52414e-05
1.50835e-05
1.39649e-05
1.2101e-05
9.67519e-06
7.50272e-06
6.24496e-06
6.63321e-06
8.09917e-06
9.67345e-06
1.01825e-05
9.0284e-06
6.85069e-06
4.51175e-06
3.21099e-06
3.63456e-06
5.70271e-06
8.6032e-06
1.08906e-05
1.21536e-05
1.1092e-05
8.31462e-06
4.4671e-06
1.20474e-06
-8.06201e-07
5.89294e-07
3.72406e-06
8.28463e-06
1.46651e-05
2.01609e-05
2.55483e-05
2.58487e-05
2.14e-05
1.56053e-05
8.44672e-06
3.3176e-06
-1.4764e-06
-4.20101e-06
-5.49754e-06
-5.84078e-06
-5.58955e-06
-4.66647e-06
-3.91323e-06
-3.4863e-06
-2.22376e-06
9.05249e-07
5.0691e-06
8.61046e-06
1.20581e-05
1.37211e-05
1.52183e-05
1.56083e-05
1.44284e-05
1.26816e-05
1.0493e-05
8.40975e-06
7.04008e-06
6.9992e-06
7.82485e-06
8.82037e-06
8.85967e-06
7.38397e-06
5.16033e-06
3.04231e-06
2.1321e-06
2.84102e-06
5.4548e-06
8.78405e-06
1.1518e-05
1.3148e-05
1.25038e-05
9.97911e-06
5.95928e-06
2.19964e-06
-7.32318e-07
2.3916e-08
2.95305e-06
7.54552e-06
1.36794e-05
1.92377e-05
2.41686e-05
2.67823e-05
2.30613e-05
1.75821e-05
1.02069e-05
3.7582e-06
-5.02858e-07
-2.50043e-06
-3.0731e-06
-2.876e-06
-2.15584e-06
-9.74156e-07
-3.08907e-07
-3.82437e-07
-4.56665e-07
9.13588e-07
4.02892e-06
6.93092e-06
1.06612e-05
1.26249e-05
1.44484e-05
1.67498e-05
1.49395e-05
1.30758e-05
1.13376e-05
9.61326e-06
8.31142e-06
7.7599e-06
7.77236e-06
8.04722e-06
7.59158e-06
5.90202e-06
3.74142e-06
1.64281e-06
8.03097e-07
1.70435e-06
4.86252e-06
8.90983e-06
1.21523e-05
1.39936e-05
1.37769e-05
1.15437e-05
7.27753e-06
3.47084e-06
-3.10231e-07
-2.31536e-07
1.18909e-06
5.699e-06
1.1705e-05
1.81683e-05
2.37637e-05
2.6155e-05
2.30039e-05
1.73607e-05
1.02154e-05
4.1924e-06
5.91135e-07
-6.85638e-07
-9.56455e-07
-7.43494e-07
3.45393e-07
2.41812e-06
3.95607e-06
4.37577e-06
3.59955e-06
3.24624e-06
4.56984e-06
6.40772e-06
9.08842e-06
1.11361e-05
1.38704e-05
1.53321e-05
1.61884e-05
1.33532e-05
1.14946e-05
1.00068e-05
9.04692e-06
8.33105e-06
7.754e-06
7.19498e-06
5.95344e-06
3.91125e-06
1.95824e-06
1.22554e-07
-3.83095e-07
6.27689e-07
4.07211e-06
8.86588e-06
1.28536e-05
1.49189e-05
1.47012e-05
1.28687e-05
7.86668e-06
4.48798e-06
4.96776e-08
-1.49399e-06
-3.07698e-07
3.67729e-06
9.28552e-06
1.56013e-05
2.15273e-05
2.4761e-05
2.30058e-05
1.74302e-05
1.06651e-05
3.53588e-06
8.57956e-07
1.01037e-06
1.67074e-06
1.78462e-06
2.35425e-06
4.37552e-06
6.50532e-06
7.97503e-06
7.59228e-06
6.43826e-06
6.29645e-06
6.84441e-06
8.49973e-06
1.04224e-05
1.26971e-05
1.45325e-05
1.57265e-05
1.42331e-05
1.21542e-05
1.02348e-05
9.0421e-06
7.99278e-06
7.01622e-06
5.73497e-06
3.62237e-06
1.18869e-06
-5.61162e-07
-1.88916e-06
-2.2436e-06
-9.68576e-07
2.80451e-06
8.51524e-06
1.37541e-05
1.64647e-05
1.58835e-05
1.35119e-05
1.018e-05
4.9345e-06
2.62603e-07
-1.78634e-06
-1.26343e-06
2.08347e-06
7.3239e-06
1.31759e-05
1.91585e-05
2.2931e-05
2.23732e-05
1.71148e-05
1.01153e-05
2.73738e-06
7.78776e-07
2.19314e-06
3.89662e-06
4.01298e-06
4.72962e-06
6.0836e-06
8.13649e-06
1.01954e-05
1.04763e-05
9.17721e-06
8.06702e-06
7.27561e-06
8.01592e-06
9.6801e-06
1.17416e-05
1.39935e-05
1.54654e-05
1.56781e-05
1.33388e-05
1.14341e-05
9.57222e-06
7.5233e-06
5.89948e-06
3.73042e-06
6.87718e-07
-2.23114e-06
-3.93896e-06
-5.0964e-06
-5.18062e-06
-3.67007e-06
3.21507e-07
6.84692e-06
1.37214e-05
1.7837e-05
1.73378e-05
1.42338e-05
1.081e-05
4.5402e-06
-4.01552e-08
-1.69626e-06
-3.10543e-07
2.99604e-06
6.25734e-06
1.16547e-05
1.67147e-05
2.03588e-05
2.08631e-05
1.65636e-05
9.54601e-06
5.46505e-07
-5.92331e-07
2.88904e-06
6.70201e-06
5.72828e-06
7.69989e-06
8.33986e-06
9.78292e-06
1.16499e-05
1.26107e-05
1.16149e-05
9.97727e-06
8.03071e-06
7.59121e-06
8.53105e-06
1.02375e-05
1.27261e-05
1.48517e-05
1.56052e-05
1.40602e-05
1.22954e-05
1.06378e-05
7.53213e-06
5.16061e-06
2.02049e-06
-1.95949e-06
-5.26375e-06
-7.42709e-06
-8.78165e-06
-9.11774e-06
-7.96047e-06
-4.29923e-06
2.66681e-06
1.13725e-05
1.75944e-05
1.85139e-05
1.48549e-05
1.03729e-05
3.39118e-06
-1.73149e-06
-3.06413e-06
-4.54158e-07
4.28889e-06
8.01781e-06
1.11122e-05
1.63135e-05
1.8563e-05
1.9369e-05
1.55528e-05
8.17661e-06
-5.36561e-08
-2.64162e-06
2.37021e-06
7.65925e-06
8.95362e-06
1.03245e-05
1.03782e-05
1.13407e-05
1.3265e-05
1.42136e-05
1.36504e-05
1.18177e-05
9.14017e-06
7.58246e-06
7.49957e-06
8.68246e-06
1.09275e-05
1.33816e-05
1.48007e-05
1.40781e-05
1.31237e-05
1.12088e-05
8.04464e-06
4.95699e-06
4.14172e-07
-4.39571e-06
-7.45392e-06
-1.09231e-05
-1.21698e-05
-1.26497e-05
-1.21764e-05
-9.99219e-06
-4.29096e-06
5.10275e-06
1.40035e-05
1.74545e-05
1.47392e-05
8.65818e-06
9.55133e-07
-6.29199e-06
-7.06308e-06
-2.88306e-06
4.34708e-06
1.03865e-05
1.39117e-05
1.91517e-05
1.79293e-05
1.79236e-05
1.48086e-05
7.73497e-06
-6.76114e-07
-6.18029e-06
9.54545e-07
7.29296e-06
1.08395e-05
1.16438e-05
1.1362e-05
1.20539e-05
1.35868e-05
1.48813e-05
1.4261e-05
1.26201e-05
9.78674e-06
7.92026e-06
7.10278e-06
7.74859e-06
9.52322e-06
1.16409e-05
1.32394e-05
1.32335e-05
1.28308e-05
1.15749e-05
8.92878e-06
5.50743e-06
3.36478e-07
-5.22053e-06
-6.72801e-06
-1.27116e-05
-1.3605e-05
-1.26174e-05
-1.1756e-05
-1.1162e-05
-9.31319e-06
-4.03747e-06
4.61495e-06
1.17111e-05
1.23647e-05
6.75346e-06
-1.39741e-06
-9.32967e-06
-1.46782e-05
-8.3074e-06
-8.04473e-08
8.44785e-06
1.49254e-05
1.80166e-05
1.99687e-05
1.82664e-05
1.47719e-05
7.72889e-06
-2.42886e-08
-4.45507e-06
6.63545e-07
7.30817e-06
1.0705e-05
1.19369e-05
1.09685e-05
1.13133e-05
1.24309e-05
1.38577e-05
1.408e-05
1.2965e-05
1.01607e-05
8.90477e-06
8.06769e-06
8.16554e-06
9.28829e-06
1.03808e-05
1.16831e-05
1.16164e-05
1.14943e-05
1.08107e-05
8.85908e-06
5.06745e-06
-4.66433e-07
-6.18064e-06
-1.06732e-05
-1.42813e-05
-1.49948e-05
-1.29249e-05
-9.75426e-06
-8.03091e-06
-8.10709e-06
-8.25639e-06
-4.27456e-06
2.63554e-06
6.85048e-06
3.91258e-06
-3.00532e-06
-1.04287e-05
-2.4705e-05
-1.33329e-05
-5.05831e-06
3.82451e-06
1.2913e-05
1.7695e-05
2.41519e-05
1.93433e-05
1.55871e-05
8.43116e-06
1.02932e-06
-3.54129e-06
1.34359e-06
8.07552e-06
1.20924e-05
1.20323e-05
1.07145e-05
1.02047e-05
1.11556e-05
1.17682e-05
1.18179e-05
1.16084e-05
9.76592e-06
8.81585e-06
8.24483e-06
8.38287e-06
9.52547e-06
1.04704e-05
1.24179e-05
1.05247e-05
9.8108e-06
8.75524e-06
7.22107e-06
4.7365e-06
3.0544e-07
-5.11909e-06
-1.17468e-05
-1.82244e-05
-2.19469e-05
-1.93799e-05
-1.40849e-05
-9.81909e-06
-8.00375e-06
-8.06561e-06
-6.93464e-06
-3.15968e-06
1.59851e-06
2.37642e-06
-1.74834e-06
-8.46826e-06
-1.29088e-05
-1.56207e-05
-9.19509e-06
2.77519e-06
1.17979e-05
1.75398e-05
2.10536e-05
2.10551e-05
1.76518e-05
9.9723e-06
3.26747e-06
-1.02336e-06
3.45869e-06
1.06399e-05
1.46738e-05
1.25655e-05
1.10478e-05
9.41917e-06
9.49138e-06
8.96367e-06
9.08051e-06
8.23597e-06
7.49093e-06
5.22027e-06
4.11977e-06
4.55888e-06
7.02568e-06
9.76229e-06
9.0715e-06
9.56993e-06
8.52706e-06
6.58625e-06
4.88679e-06
2.74194e-06
-2.42867e-07
-4.68963e-06
-1.22624e-05
-2.08969e-05
-2.59268e-05
-2.47966e-05
-1.85116e-05
-1.38935e-05
-9.76382e-06
-6.36157e-06
-4.23822e-06
-2.65621e-06
-3.15524e-07
2.33392e-06
1.04599e-06
-4.3129e-06
-1.23621e-05
-1.88101e-05
-1.68282e-05
-5.18407e-06
6.8917e-06
1.52694e-05
2.00217e-05
2.1887e-05
1.95474e-05
1.21473e-05
5.27337e-06
1.36815e-06
5.6957e-06
1.26931e-05
1.67452e-05
1.72313e-05
1.24662e-05
9.41009e-06
7.9706e-06
7.204e-06
6.60448e-06
6.01313e-06
5.23277e-06
2.7044e-06
1.56978e-06
3.09939e-06
6.14998e-06
9.30639e-06
9.87075e-06
1.03634e-05
9.72971e-06
8.54965e-06
7.80596e-06
6.93729e-06
5.88758e-06
2.03534e-06
-6.94048e-06
-1.85124e-05
-2.67002e-05
-2.81478e-05
-2.23433e-05
-2.09329e-05
-1.57018e-05
-9.57337e-06
-4.1396e-06
-8.54796e-07
2.91389e-06
5.94876e-06
6.52581e-06
3.06398e-06
-5.22991e-06
-1.44212e-05
-1.81218e-05
-1.23788e-05
-1.02586e-06
9.45398e-06
1.65842e-05
1.99002e-05
1.88647e-05
1.2812e-05
6.5936e-06
5.41994e-06
1.00972e-05
1.57584e-05
1.80058e-05
1.66613e-05
1.29966e-05
9.26169e-06
7.14819e-06
6.97194e-06
5.83694e-06
3.86067e-06
2.25598e-06
-1.65439e-06
-6.79761e-07
2.41829e-06
7.88308e-06
1.21206e-05
1.21402e-05
1.03486e-05
8.4458e-06
7.43413e-06
8.09883e-06
1.14499e-05
1.59383e-05
1.63487e-05
1.13074e-05
8.36137e-07
-9.90017e-06
-1.70304e-05
-1.97464e-05
-1.90733e-05
-1.65586e-05
-1.10796e-05
-5.95203e-06
-2.07272e-06
1.18827e-07
3.12471e-06
5.8502e-06
7.1302e-06
5.0174e-06
-3.7965e-07
-6.03866e-06
-8.74309e-06
-5.96737e-06
5.22147e-07
7.96302e-06
1.29537e-05
1.38319e-05
1.06772e-05
5.45751e-06
6.80657e-06
1.03509e-05
1.5118e-05
1.71825e-05
1.60123e-05
1.25098e-05
8.20331e-06
5.91559e-06
5.74173e-06
3.96743e-06
1.04546e-06
2.59119e-07
-1.67877e-06
1.0218e-07
2.166e-06
5.05575e-06
7.76887e-06
9.12294e-06
9.48216e-06
8.71373e-06
6.43845e-06
4.60382e-06
4.52266e-06
5.39352e-06
9.90976e-06
1.15858e-05
9.25282e-06
4.81542e-06
2.97454e-07
-2.65215e-06
-4.53841e-06
-4.92464e-06
-3.55301e-06
-1.49533e-06
-1.10726e-08
1.80969e-06
3.50494e-06
6.01924e-06
9.25096e-06
8.74032e-06
5.28773e-06
2.40151e-07
-4.82901e-06
-7.78314e-06
-5.04029e-06
4.36813e-07
4.8205e-06
6.46889e-06
4.94423e-06
6.51999e-06
8.19408e-06
1.11946e-05
1.4422e-05
1.59139e-05
1.65415e-05
1.57063e-05
1.31515e-05
9.59191e-06
5.35804e-06
-3.19747e-07
-6.3414e-06
-8.95478e-06
-9.47405e-06
-6.64503e-06
-2.24101e-06
2.07059e-06
5.68528e-06
8.31459e-06
9.26185e-06
6.86246e-06
2.13868e-06
-5.19969e-07
7.68372e-07
3.61728e-06
7.17421e-06
9.91226e-06
1.02972e-05
6.50887e-06
2.60929e-06
-3.45311e-06
-8.10919e-06
-7.10153e-06
-2.11395e-06
2.47284e-06
3.86908e-06
2.13936e-06
2.93989e-06
7.37926e-06
1.06752e-05
8.75714e-06
2.99798e-06
-3.6803e-06
-7.9436e-06
-9.47666e-06
-6.77626e-06
-2.15414e-06
1.54595e-06
4.22657e-06
6.14193e-06
3.4089e-05
2.98114e-05
1.74982e-05
7.48526e-06
-2.88595e-07
-4.77529e-06
-5.53357e-06
-3.48086e-06
-8.51897e-08
3.88805e-06
8.11037e-06
1.16491e-05
1.39106e-05
1.42161e-05
1.33499e-05
1.21728e-05
1.05228e-05
8.41382e-06
5.9952e-06
4.24784e-06
4.53002e-06
7.38663e-06
1.29504e-05
1.86069e-05
2.18765e-05
2.12527e-05
1.71341e-05
1.17862e-05
6.98638e-06
3.97659e-06
2.88279e-06
3.15857e-06
4.07253e-06
5.11213e-06
5.92968e-06
6.01327e-06
5.30751e-06
3.90156e-06
2.94739e-06
3.36452e-06
4.52115e-06
5.01029e-06
3.90366e-06
2.18268e-06
1.30511e-06
8.94429e-07
1.07988e-06
3.66005e-06
1.32656e-05
2.64445e-05
3.40065e-05
2.97745e-05
1.74498e-05
7.52576e-06
-3.17775e-07
-4.86255e-06
-5.64978e-06
-3.59423e-06
-1.73617e-07
3.83548e-06
8.09458e-06
1.16666e-05
1.39536e-05
1.42459e-05
1.33629e-05
1.218e-05
1.05177e-05
8.39689e-06
5.95897e-06
4.19347e-06
4.47293e-06
7.33754e-06
1.29212e-05
1.86068e-05
2.18973e-05
2.12821e-05
1.71487e-05
1.17672e-05
6.94707e-06
3.92889e-06
2.84324e-06
3.12756e-06
4.05121e-06
5.09798e-06
5.9261e-06
6.02279e-06
5.34026e-06
3.95184e-06
3.01317e-06
3.45174e-06
4.64073e-06
5.17145e-06
4.08785e-06
2.35954e-06
1.46189e-06
9.82025e-07
1.05146e-06
3.50234e-06
1.30498e-05
2.62725e-05
3.38926e-05
2.97745e-05
1.74481e-05
7.6321e-06
-3.51429e-07
-4.99348e-06
-5.8252e-06
-3.74976e-06
-2.78583e-07
3.80531e-06
8.14416e-06
1.17654e-05
1.40786e-05
1.43313e-05
1.34145e-05
1.22064e-05
1.05132e-05
8.36663e-06
5.90037e-06
4.11279e-06
4.39485e-06
7.27765e-06
1.28976e-05
1.86334e-05
2.19565e-05
2.13473e-05
1.71676e-05
1.17108e-05
6.86494e-06
3.84367e-06
2.77338e-06
3.07593e-06
4.01702e-06
5.07686e-06
5.92391e-06
6.0455e-06
5.40417e-06
4.037e-06
3.104e-06
3.5589e-06
4.7924e-06
5.37262e-06
4.28959e-06
2.50505e-06
1.53958e-06
9.25146e-07
8.23988e-07
3.08858e-06
1.25718e-05
2.59437e-05
3.37218e-05
2.97815e-05
1.74824e-05
7.78401e-06
-4.04667e-07
-5.18259e-06
-6.07024e-06
-3.95065e-06
-3.9279e-07
3.80409e-06
8.26582e-06
1.19517e-05
1.42918e-05
1.44852e-05
1.35116e-05
1.22553e-05
1.05108e-05
8.32352e-06
5.81868e-06
4.00599e-06
4.29813e-06
7.2128e-06
1.28845e-05
1.869e-05
2.20526e-05
2.14455e-05
1.71909e-05
1.16107e-05
6.73844e-06
3.71129e-06
2.66544e-06
2.99646e-06
3.96346e-06
5.0426e-06
5.91508e-06
6.07079e-06
5.49237e-06
4.15279e-06
3.21739e-06
3.68552e-06
4.97976e-06
5.61598e-06
4.49826e-06
2.58642e-06
1.48652e-06
6.55463e-07
3.4554e-07
2.38062e-06
1.17981e-05
2.5422e-05
3.34654e-05
2.9754e-05
1.75239e-05
7.94127e-06
-5.00507e-07
-5.43419e-06
-6.38444e-06
-4.19893e-06
-5.26453e-07
3.8174e-06
8.45e-06
1.22132e-05
1.45851e-05
1.47099e-05
1.36542e-05
1.23249e-05
1.0512e-05
8.27267e-06
5.72412e-06
3.88636e-06
4.19422e-06
7.1497e-06
1.28783e-05
1.87648e-05
2.21691e-05
2.15642e-05
1.7217e-05
1.14655e-05
6.57108e-06
3.53056e-06
2.5126e-06
2.87851e-06
3.87828e-06
4.98307e-06
5.88482e-06
6.08018e-06
5.58468e-06
4.29014e-06
3.34264e-06
3.8278e-06
5.21399e-06
5.92916e-06
4.75088e-06
2.62606e-06
1.29538e-06
1.29781e-07
-4.30118e-07
1.34416e-06
1.0717e-05
2.46868e-05
3.30504e-05
2.95917e-05
1.75262e-05
8.02952e-06
-6.76161e-07
-5.75023e-06
-6.75814e-06
-4.48517e-06
-6.71286e-07
3.84963e-06
8.70172e-06
1.25458e-05
1.49576e-05
1.50084e-05
1.38345e-05
1.2404e-05
1.05071e-05
8.21387e-06
5.62856e-06
3.774e-06
4.10399e-06
7.10176e-06
1.28846e-05
1.88529e-05
2.22922e-05
2.16957e-05
1.72526e-05
1.12814e-05
6.37665e-06
3.31325e-06
2.31667e-06
2.71295e-06
3.74333e-06
4.87496e-06
5.80127e-06
6.02665e-06
5.6252e-06
4.38292e-06
3.42411e-06
4.00352e-06
5.48093e-06
6.35713e-06
5.20224e-06
2.86613e-06
1.23562e-06
-4.52983e-07
-1.42501e-06
-7.33054e-08
9.23504e-06
2.36577e-05
3.22649e-05
2.91494e-05
1.73577e-05
7.90362e-06
-1.01017e-06
-6.14793e-06
-7.1808e-06
-4.81224e-06
-6.85994e-07
3.92748e-06
9.10625e-06
1.29764e-05
1.54347e-05
1.54122e-05
1.40621e-05
1.24871e-05
1.04787e-05
8.12699e-06
5.51976e-06
3.66698e-06
4.03283e-06
7.07528e-06
1.29134e-05
1.89602e-05
2.24223e-05
2.18472e-05
1.73264e-05
1.10737e-05
6.17964e-06
3.0914e-06
2.10615e-06
2.52471e-06
3.57859e-06
4.72978e-06
5.6606e-06
5.87737e-06
5.54608e-06
4.32717e-06
3.35222e-06
3.92822e-06
5.57249e-06
6.71297e-06
5.98754e-06
3.61662e-06
1.81363e-06
-4.50897e-07
-2.01457e-06
-1.57552e-06
7.28441e-06
2.2103e-05
3.07805e-05
2.80462e-05
1.67235e-05
7.38764e-06
-1.59631e-06
-6.66558e-06
-7.662e-06
-5.14422e-06
-8.02813e-07
4.10239e-06
9.36195e-06
1.35419e-05
1.60399e-05
1.59744e-05
1.43762e-05
1.26041e-05
1.04502e-05
8.01985e-06
5.38666e-06
3.53649e-06
3.93208e-06
7.00562e-06
1.29004e-05
1.90408e-05
2.25256e-05
2.20194e-05
1.74562e-05
1.08122e-05
6.03245e-06
2.90823e-06
1.935e-06
2.36931e-06
3.44056e-06
4.61517e-06
5.54053e-06
5.71333e-06
5.42473e-06
4.16422e-06
3.11923e-06
3.64187e-06
5.37792e-06
6.70267e-06
6.21673e-06
4.05885e-06
2.41217e-06
4.45327e-07
-1.2244e-06
-2.03184e-06
5.4824e-06
2.00136e-05
2.87918e-05
2.61265e-05
1.52919e-05
6.37878e-06
-2.40497e-06
-7.26163e-06
-8.22747e-06
-5.5226e-06
-9.7334e-07
4.18708e-06
9.58508e-06
1.41182e-05
1.66976e-05
1.66818e-05
1.47706e-05
1.27666e-05
1.04551e-05
7.95129e-06
5.21444e-06
3.3988e-06
3.753e-06
6.76565e-06
1.26651e-05
1.89033e-05
2.24263e-05
2.20893e-05
1.74827e-05
1.05316e-05
5.88592e-06
2.76815e-06
1.84444e-06
2.32434e-06
3.44413e-06
4.61734e-06
5.53145e-06
5.62778e-06
5.41186e-06
4.08532e-06
2.94089e-06
3.32176e-06
5.08915e-06
6.51019e-06
6.12533e-06
3.88676e-06
2.19672e-06
7.37712e-07
7.53421e-08
-1.10625e-06
4.97348e-06
1.82525e-05
2.71185e-05
2.38914e-05
1.30897e-05
4.92493e-06
-3.26836e-06
-7.73676e-06
-8.83952e-06
-6.04482e-06
-1.3531e-06
4.02503e-06
9.55541e-06
1.44742e-05
1.72083e-05
1.74344e-05
1.51029e-05
1.28697e-05
1.0454e-05
7.94289e-06
5.19772e-06
3.31909e-06
3.49638e-06
6.22745e-06
1.1945e-05
1.82245e-05
2.24212e-05
2.17989e-05
1.72489e-05
1.03219e-05
5.68756e-06
2.61747e-06
1.78133e-06
2.35677e-06
3.58929e-06
4.84221e-06
5.78021e-06
5.80171e-06
5.42929e-06
4.1202e-06
2.8842e-06
3.14714e-06
4.98377e-06
6.53567e-06
6.24542e-06
3.76362e-06
1.81654e-06
1.11856e-07
2.81661e-07
-5.47778e-08
4.82309e-06
1.73383e-05
2.5924e-05
2.24301e-05
1.10116e-05
3.24681e-06
-4.07109e-06
-7.82332e-06
-9.28669e-06
-6.58839e-06
-1.98157e-06
3.52247e-06
9.04406e-06
1.44428e-05
1.74683e-05
1.80336e-05
1.51041e-05
1.26748e-05
1.02791e-05
7.91788e-06
5.29206e-06
3.39905e-06
3.3052e-06
5.52126e-06
1.07683e-05
1.6875e-05
2.11187e-05
2.08909e-05
1.66315e-05
1.02363e-05
5.37115e-06
2.42456e-06
1.71493e-06
2.41045e-06
3.77709e-06
5.18434e-06
6.26901e-06
6.32989e-06
5.60759e-06
4.29054e-06
2.76076e-06
2.95772e-06
4.93389e-06
6.7662e-06
6.78133e-06
4.11241e-06
1.90093e-06
-1.60601e-07
7.58471e-08
4.41278e-07
5.44235e-06
1.6097e-05
2.3968e-05
2.13124e-05
1.06347e-05
2.31609e-06
-4.99115e-06
-7.93625e-06
-9.74624e-06
-6.79554e-06
-2.46399e-06
3.10378e-06
8.21961e-06
1.43614e-05
1.77172e-05
1.89034e-05
1.47642e-05
1.19561e-05
9.63711e-06
7.668e-06
5.42855e-06
3.68147e-06
3.31645e-06
4.88844e-06
9.35811e-06
1.49996e-05
1.92353e-05
1.94439e-05
1.55619e-05
9.70173e-06
4.87597e-06
2.13227e-06
1.66061e-06
2.5327e-06
4.0462e-06
5.60141e-06
6.87251e-06
7.09078e-06
6.19826e-06
4.67158e-06
2.54021e-06
2.44611e-06
4.35552e-06
6.90372e-06
7.32467e-06
4.66211e-06
2.87119e-06
4.96762e-08
2.08128e-07
9.34323e-07
5.81388e-06
1.53132e-05
2.19605e-05
2.04953e-05
1.14805e-05
2.99489e-06
-4.10413e-06
-7.52284e-06
-1.10926e-05
-7.34099e-06
-2.80907e-06
2.96575e-06
7.14837e-06
1.39691e-05
1.78278e-05
2.08718e-05
1.48295e-05
1.12171e-05
8.61678e-06
7.01204e-06
5.41527e-06
4.12501e-06
3.63731e-06
4.57007e-06
8.02742e-06
1.28619e-05
1.68557e-05
1.75108e-05
1.42018e-05
8.90365e-06
4.2533e-06
1.65892e-06
1.52068e-06
2.68694e-06
4.42993e-06
6.17234e-06
7.6033e-06
8.00886e-06
7.14271e-06
4.92664e-06
2.34294e-06
1.49111e-06
2.87744e-06
5.96404e-06
7.94094e-06
4.87667e-06
4.98553e-06
1.34392e-06
1.14014e-06
1.75942e-06
6.27121e-06
1.44572e-05
1.92822e-05
1.8647e-05
1.17059e-05
4.00946e-06
-2.68021e-06
-6.82676e-06
-9.37002e-06
-8.08914e-06
-3.5944e-06
2.28915e-06
5.89103e-06
1.29184e-05
1.71704e-05
1.95266e-05
1.51525e-05
1.08866e-05
7.63225e-06
6.12606e-06
5.1424e-06
4.41018e-06
4.01841e-06
4.49258e-06
7.01702e-06
1.08843e-05
1.43965e-05
1.53109e-05
1.25968e-05
7.88333e-06
3.44902e-06
1.13526e-06
9.19182e-07
2.76876e-06
4.80525e-06
6.84463e-06
8.43981e-06
9.0288e-06
8.31112e-06
5.78008e-06
2.61509e-06
5.21033e-07
6.40162e-07
3.80434e-06
7.18255e-06
7.4384e-06
8.65144e-06
4.52805e-06
3.78436e-06
3.35839e-06
6.6401e-06
1.32836e-05
1.61094e-05
1.60273e-05
1.09929e-05
4.52381e-06
-1.26235e-06
-5.3092e-06
-7.71621e-06
-7.01037e-06
-3.29258e-06
1.16003e-06
4.54593e-06
1.12753e-05
1.56657e-05
1.83449e-05
1.57159e-05
1.13291e-05
7.21436e-06
5.34039e-06
4.64137e-06
4.38225e-06
4.18644e-06
4.31673e-06
5.88031e-06
8.73407e-06
1.17138e-05
1.28679e-05
1.09847e-05
7.08478e-06
2.78455e-06
2.79732e-07
5.0065e-08
2.32523e-06
5.05829e-06
7.63957e-06
9.37691e-06
1.01583e-05
9.64681e-06
7.03303e-06
3.05437e-06
-3.29142e-07
-1.63114e-06
8.26793e-07
4.87577e-06
7.69303e-06
1.04923e-05
8.67507e-06
7.67963e-06
6.17173e-06
7.17074e-06
1.16686e-05
1.29982e-05
1.33578e-05
1.00723e-05
5.12962e-06
1.91895e-07
-3.28524e-06
-5.24606e-06
-5.085e-06
-2.61521e-06
7.53685e-07
3.62712e-06
9.6313e-06
1.36204e-05
1.65037e-05
1.5657e-05
1.19955e-05
7.64186e-06
5.49183e-06
4.50502e-06
4.13416e-06
4.0505e-06
4.01811e-06
4.79783e-06
6.59677e-06
8.80511e-06
9.85837e-06
8.73941e-06
6.13966e-06
2.54636e-06
-1.72971e-07
-9.05508e-07
1.79609e-06
5.0855e-06
8.2797e-06
1.04026e-05
1.15231e-05
1.13695e-05
8.59204e-06
4.17764e-06
-2.78664e-07
-3.46768e-06
-2.24311e-06
1.63178e-06
6.08267e-06
1.00081e-05
1.05555e-05
1.142e-05
8.02499e-06
7.37888e-06
9.81498e-06
9.7587e-06
1.07977e-05
9.19064e-06
5.85547e-06
1.81017e-06
-1.13372e-06
-2.19966e-06
-1.8066e-06
-7.29722e-08
1.90545e-06
4.09613e-06
8.24806e-06
1.14329e-05
1.42606e-05
1.45561e-05
1.26327e-05
7.54221e-06
6.1131e-06
5.06267e-06
4.2239e-06
3.97529e-06
3.77021e-06
3.94122e-06
4.78405e-06
6.20291e-06
6.9031e-06
6.15636e-06
4.68836e-06
2.24291e-06
-1.79551e-07
-1.38403e-06
8.38087e-07
4.59487e-06
8.63334e-06
1.13687e-05
1.29372e-05
1.34907e-05
1.12453e-05
6.35947e-06
9.328e-07
-3.94778e-06
-3.71198e-06
-1.36323e-06
3.0772e-06
7.96173e-06
1.05437e-05
1.20528e-05
7.90436e-06
6.908e-06
7.48475e-06
6.52615e-06
8.14561e-06
8.09229e-06
6.42323e-06
3.25205e-06
6.341e-07
2.19492e-07
1.49035e-06
3.69476e-06
5.14106e-06
5.96189e-06
7.91971e-06
9.70803e-06
1.17943e-05
1.26071e-05
1.21976e-05
9.71574e-06
6.43657e-06
6.13681e-06
4.81818e-06
4.29262e-06
4.09683e-06
3.86008e-06
3.83422e-06
4.25187e-06
4.26539e-06
3.59264e-06
2.85455e-06
1.4605e-06
-1.54377e-07
-1.274e-06
2.40153e-07
4.12952e-06
8.76875e-06
1.21652e-05
1.41007e-05
1.54941e-05
1.384e-05
9.05784e-06
3.52011e-06
-1.19438e-06
-2.4829e-06
-2.22333e-06
8.54657e-07
5.70813e-06
9.62264e-06
1.14392e-05
8.69696e-06
6.05607e-06
5.10942e-06
2.88147e-06
5.15018e-06
6.69965e-06
6.88169e-06
4.52743e-06
2.16126e-06
2.27632e-06
3.89196e-06
6.94833e-06
8.71955e-06
8.54918e-06
8.60091e-06
8.80967e-06
9.80899e-06
1.04749e-05
1.08208e-05
1.02268e-05