/*--------------------------------*- C++ -*----------------------------------*\
| =========                 |                                                 |
| \\      /  F ield         | OpenFOAM: The Open Source CFD Toolbox           |
|  \\    /   O peration     | Version:  2.3.0                                 |
|   \\  /    A nd           | Web:      www.OpenFOAM.org                      |
|    \\/     M anipulation  |                                                 |
\*---------------------------------------------------------------------------*/
FoamFile
{
    version     2.0;
    format      ascii;
    class       surfaceScalarField;
    location    "300";
    object      phi;
}
// * * * * * * * * * * * * * * * * * * * * * * * * * * * * * * * * * * * * * //

dimensions      [0 3 -1 0 0 0 0];

internalField   nonuniform List<scalar> 
263700
(
2.75504e-06
1.13138e-07
-2.17751e-07
2.75458e-06
1.16911e-07
-2.08115e-07
2.74688e-06
1.1327e-07
-1.89962e-07
2.73296e-06
8.56536e-08
-1.62778e-07
2.72269e-06
4.87473e-08
-1.42351e-07
2.71604e-06
1.58138e-08
-1.27889e-07
2.7102e-06
-1.12827e-08
-1.15231e-07
2.70421e-06
-3.16888e-08
-1.03933e-07
2.69696e-06
-4.48878e-08
-9.36759e-08
2.68991e-06
-5.40108e-08
-8.42724e-08
2.68437e-06
-6.01008e-08
-7.4504e-08
2.67948e-06
-6.05508e-08
-6.45896e-08
2.67526e-06
-5.59192e-08
-5.54068e-08
2.67021e-06
-4.4735e-08
-4.82092e-08
2.66585e-06
-3.19219e-08
-4.40208e-08
2.66231e-06
-1.7909e-08
-4.22317e-08
2.65819e-06
-2.99589e-09
-4.32089e-08
2.65254e-06
1.15237e-08
-4.7772e-08
2.64383e-06
2.45674e-08
-5.75341e-08
2.63585e-06
3.17777e-08
-7.41099e-08
2.6327e-06
3.1853e-08
-9.41354e-08
2.63663e-06
2.58641e-08
-1.1195e-07
2.64956e-06
1.39701e-08
-1.21881e-07
2.66527e-06
5.67988e-09
-1.19442e-07
2.67872e-06
2.25785e-09
-1.06705e-07
2.68492e-06
5.4843e-09
-8.8389e-08
2.68422e-06
1.13117e-08
-7.24587e-08
2.6792e-06
1.88091e-08
-6.40334e-08
2.6738e-06
2.4827e-08
-6.3784e-08
2.6727e-06
2.63054e-08
-6.88716e-08
2.6762e-06
2.63337e-08
-7.55902e-08
2.68469e-06
2.58026e-08
-8.30615e-08
2.69453e-06
2.96276e-08
-9.06485e-08
2.70434e-06
3.57973e-08
-9.85184e-08
2.71082e-06
4.58098e-08
-1.05968e-07
2.71303e-06
5.48543e-08
-1.10524e-07
2.7139e-06
5.68129e-08
-1.1129e-07
2.7143e-06
5.32904e-08
-1.07653e-07
2.71814e-06
4.16896e-08
-1.00646e-07
2.72569e-06
2.47087e-08
-8.89287e-08
2.73716e-06
5.64669e-09
-7.56921e-08
2.75207e-06
-8.79511e-09
-6.35325e-08
2.76572e-06
-1.50443e-08
-5.4378e-08
2.77605e-06
-1.61639e-08
-5.10129e-08
2.78093e-06
-1.24465e-08
-5.45119e-08
2.77638e-06
-6.865e-10
-6.58813e-08
2.76443e-06
1.34456e-08
-8.66929e-08
2.75729e-06
4.13e-08
-1.32232e-07
2.75428e-06
7.33889e-08
-1.78742e-07
9.8538e-08
-2.10669e-07
9.17534e-06
3.37037e-07
-5.41548e-07
9.1752e-06
3.45349e-07
-5.2518e-07
9.16342e-06
3.13143e-07
-4.8638e-07
9.14221e-06
2.26891e-07
-4.36487e-07
9.12228e-06
1.25786e-07
-3.98638e-07
9.10246e-06
3.48294e-08
-3.65923e-07
9.07921e-06
-3.85411e-08
-3.35788e-07
9.05217e-06
-9.15579e-08
-3.08172e-07
9.02129e-06
-1.24239e-07
-2.82887e-07
8.98998e-06
-1.44255e-07
-2.59421e-07
8.96048e-06
-1.53711e-07
-2.36589e-07
8.93248e-06
-1.47074e-07
-2.15488e-07
8.90708e-06
-1.27596e-07
-1.97347e-07
8.88285e-06
-9.30096e-08
-1.83789e-07
8.8626e-06
-5.60246e-08
-1.77018e-07
8.84588e-06
-1.65076e-08
-1.76088e-07
8.83138e-06
2.26044e-08
-1.82167e-07
8.81803e-06
5.79495e-08
-1.96224e-07
8.80509e-06
8.66884e-08
-2.19289e-07
8.79816e-06
9.91814e-08
-2.50182e-07
8.80087e-06
9.39273e-08
-2.80579e-07
8.81436e-06
7.529e-08
-3.01904e-07
8.8378e-06
4.57344e-08
-3.06891e-07
8.86082e-06
2.75031e-08
-2.92049e-07
8.87768e-06
2.15551e-08
-2.6513e-07
8.88325e-06
3.21677e-08
-2.35564e-07
8.88107e-06
4.92365e-08
-2.17318e-07
8.87616e-06
7.25037e-08
-2.16196e-07
8.8748e-06
9.08984e-08
-2.28567e-07
8.88254e-06
1.00385e-07
-2.49416e-07
8.89864e-06
1.07237e-07
-2.71788e-07
8.92239e-06
1.14099e-07
-2.93646e-07
8.94824e-06
1.30667e-07
-3.12954e-07
8.97459e-06
1.50691e-07
-3.29295e-07
8.99734e-06
1.76928e-07
-3.41353e-07
9.01695e-06
1.95874e-07
-3.45426e-07
9.03715e-06
1.95225e-07
-3.41275e-07
9.05872e-06
1.7927e-07
-3.28301e-07
9.08527e-06
1.4153e-07
-3.08034e-07
9.11499e-06
9.3537e-08
-2.83526e-07
9.14652e-06
4.74935e-08
-2.60494e-07
9.17728e-06
1.27249e-08
-2.4114e-07
9.20031e-06
-3.44738e-09
-2.29791e-07
9.21324e-06
-7.58027e-09
-2.31227e-07
9.21409e-06
3.76022e-10
-2.47142e-07
9.20118e-06
2.80449e-08
-2.78911e-07
9.18189e-06
7.63082e-08
-3.37211e-07
9.1717e-06
1.52264e-07
-4.15775e-07
9.1693e-06
2.3127e-07
-4.87472e-07
2.96456e-07
-5.32341e-07
1.71807e-05
6.2257e-07
-8.4859e-07
1.71922e-05
6.2872e-07
-8.26034e-07
1.71873e-05
5.49438e-07
-7.70486e-07
1.71657e-05
3.90873e-07
-7.05561e-07
1.71368e-05
2.12361e-07
-6.53358e-07
1.70997e-05
5.23645e-08
-6.06847e-07
1.70512e-05
-7.3791e-08
-5.64628e-07
1.69928e-05
-1.61249e-07
-5.2675e-07
1.69265e-05
-2.111e-07
-4.9319e-07
1.68579e-05
-2.36558e-07
-4.62429e-07
1.67914e-05
-2.42211e-07
-4.3311e-07
1.67281e-05
-2.20234e-07
-4.05682e-07
1.66709e-05
-1.78712e-07
-3.80975e-07
1.66193e-05
-1.14577e-07
-3.61061e-07
1.65772e-05
-4.90832e-08
-3.49659e-07
1.65442e-05
1.90177e-08
-3.45731e-07
1.65185e-05
8.30811e-08
-3.50792e-07
1.64985e-05
1.38514e-07
-3.65735e-07
1.64821e-05
1.80831e-07
-3.90706e-07
1.6474e-05
1.95432e-07
-4.2353e-07
1.64765e-05
1.80537e-07
-4.53737e-07
1.64898e-05
1.44488e-07
-4.71813e-07
1.65127e-05
9.2124e-08
-4.70678e-07
1.65336e-05
5.99775e-08
-4.47058e-07
1.65479e-05
4.78863e-08
-4.12091e-07
1.65512e-05
6.47801e-08
-3.78356e-07
1.65484e-05
9.51852e-08
-3.63526e-07
1.65461e-05
1.39755e-07
-3.73109e-07
1.65507e-05
1.78128e-07
-4.01522e-07
1.6568e-05
2.057e-07
-4.41941e-07
1.65971e-05
2.30223e-07
-4.84579e-07
1.66371e-05
2.56167e-07
-5.25724e-07
1.66828e-05
2.96599e-07
-5.62177e-07
1.67323e-05
3.40203e-07
-5.91701e-07
1.67816e-05
3.89828e-07
-6.1277e-07
1.68305e-05
4.22074e-07
-6.20064e-07
1.68813e-05
4.17834e-07
-6.13461e-07
1.69338e-05
3.84191e-07
-5.93297e-07
1.69889e-05
3.11643e-07
-5.6302e-07
1.70437e-05
2.25473e-07
-5.29742e-07
1.70963e-05
1.46313e-07
-4.99805e-07
1.71434e-05
8.5122e-08
-4.75525e-07
1.71776e-05
5.27788e-08
-4.62556e-07
1.71964e-05
4.02294e-08
-4.6622e-07
1.71983e-05
4.78025e-08
-4.87895e-07
1.7183e-05
9.16255e-08
-5.3032e-07
1.71616e-05
1.83883e-07
-6.07026e-07
1.71522e-05
3.11334e-07
-6.98925e-07
1.71544e-05
4.42152e-07
-7.83632e-07
5.53206e-07
-8.37121e-07
2.69955e-05
9.55071e-07
-1.1614e-06
2.70242e-05
9.54451e-07
-1.13194e-06
2.70304e-05
8.19865e-07
-1.06271e-06
2.70101e-05
5.80016e-07
-9.82735e-07
2.69711e-05
3.12484e-07
-9.14432e-07
2.69127e-05
7.12557e-08
-8.52065e-07
2.68325e-05
-1.17378e-07
-7.96607e-07
2.67346e-05
-2.44162e-07
-7.4912e-07
2.66241e-05
-3.1045e-07
-7.10952e-07
2.65088e-05
-3.35343e-07
-6.78444e-07
2.63965e-05
-3.28821e-07
-6.48778e-07
2.62897e-05
-2.80916e-07
-6.20752e-07
2.61934e-05
-2.07767e-07
-5.93348e-07
2.61084e-05
-1.0526e-07
-5.69126e-07
2.60397e-05
-4.80755e-09
-5.52704e-07
2.5987e-05
9.66436e-08
-5.4357e-07
2.59472e-05
1.87795e-07
-5.43463e-07
2.59176e-05
2.63499e-07
-5.54072e-07
2.58933e-05
3.18056e-07
-5.75064e-07
2.5878e-05
3.31334e-07
-6.04126e-07
2.58728e-05
3.00388e-07
-6.2882e-07
2.58773e-05
2.3748e-07
-6.37606e-07
2.58915e-05
1.48951e-07
-6.23823e-07
2.59031e-05
8.96642e-08
-5.84204e-07
2.59087e-05
5.7322e-08
-5.32393e-07
2.59053e-05
6.81739e-08
-4.85029e-07
2.58983e-05
1.0426e-07
-4.64865e-07
2.5896e-05
1.68013e-07
-4.79207e-07
2.5905e-05
2.29334e-07
-5.21658e-07
2.59311e-05
2.8364e-07
-5.84008e-07
2.59738e-05
3.38378e-07
-6.53707e-07
2.60322e-05
3.99555e-07
-7.24402e-07
2.6102e-05
4.82369e-07
-7.92059e-07
2.61805e-05
5.69187e-07
-8.50469e-07
2.62642e-05
6.59969e-07
-8.96429e-07
2.63519e-05
7.19725e-07
-9.21519e-07
2.6443e-05
7.19912e-07
-9.23045e-07
2.65366e-05
6.69354e-07
-9.02805e-07
2.66301e-05
5.5825e-07
-8.66593e-07
2.67199e-05
4.28526e-07
-8.24725e-07
2.68042e-05
3.10725e-07
-7.86889e-07
2.68784e-05
2.1973e-07
-7.56911e-07
2.69345e-05
1.69754e-07
-7.4236e-07
2.69684e-05
1.50428e-07
-7.49203e-07
2.6978e-05
1.59691e-07
-7.77063e-07
2.69644e-05
2.22852e-07
-8.2821e-07
2.69424e-05
3.60954e-07
-9.14392e-07
2.69341e-05
5.3378e-07
-1.01052e-06
2.69417e-05
7.08431e-07
-1.09784e-06
8.59992e-07
-1.15208e-06
3.88016e-05
1.38012e-06
-1.52988e-06
3.88395e-05
1.36578e-06
-1.48404e-06
3.88474e-05
1.17468e-06
-1.39991e-06
3.88174e-05
8.46784e-07
-1.30146e-06
3.87552e-05
4.73708e-07
-1.20853e-06
3.8661e-05
1.24738e-07
-1.11566e-06
3.85346e-05
-1.56372e-07
-1.03031e-06
3.83833e-05
-3.49747e-07
-9.57348e-07
3.82179e-05
-4.52386e-07
-9.0396e-07
3.80481e-05
-4.84342e-07
-8.66352e-07
3.78854e-05
-4.65281e-07
-8.38042e-07
3.77338e-05
-3.81303e-07
-8.16812e-07
3.75987e-05
-2.60819e-07
-7.96927e-07
3.74826e-05
-1.00567e-07
-7.79911e-07
3.73901e-05
5.42514e-08
-7.68795e-07
3.73213e-05
2.06618e-07
-7.63217e-07
3.72705e-05
3.4013e-07
-7.65146e-07
3.7234e-05
4.47676e-07
-7.76876e-07
3.72033e-05
5.2271e-07
-7.97257e-07
3.71792e-05
5.37894e-07
-8.22731e-07
3.71626e-05
4.85656e-07
-8.37458e-07
3.71511e-05
3.83189e-07
-8.26459e-07
3.71473e-05
2.34523e-07
-7.82824e-07
3.7139e-05
1.19472e-07
-7.05919e-07
3.71241e-05
3.62458e-08
-6.14121e-07
3.71031e-05
8.41127e-09
-5.28526e-07
3.70822e-05
2.17753e-08
-4.80123e-07
3.70722e-05
8.38047e-08
-4.80569e-07
3.70813e-05
1.54046e-07
-5.23537e-07
3.71147e-05
2.3006e-07
-6.00069e-07
3.71721e-05
3.19189e-07
-6.96393e-07
3.72523e-05
4.28934e-07
-8.02629e-07
3.73524e-05
5.75838e-07
-9.15153e-07
3.74681e-05
7.36424e-07
-1.02343e-06
3.75962e-05
9.01128e-07
-1.11893e-06
3.77353e-05
1.02062e-06
-1.18905e-06
3.78799e-05
1.05283e-06
-1.22369e-06
3.8029e-05
1.00153e-06
-1.22227e-06
3.8176e-05
8.60736e-07
-1.19351e-06
3.8316e-05
6.90108e-07
-1.14893e-06
3.84482e-05
5.31616e-07
-1.10319e-06
3.85663e-05
4.11018e-07
-1.06573e-06
3.86616e-05
3.48643e-07
-1.05043e-06
3.87265e-05
3.38533e-07
-1.06926e-06
3.87571e-05
3.73885e-07
-1.12179e-06
3.87545e-05
4.84596e-07
-1.20578e-06
3.87361e-05
6.90552e-07
-1.32258e-06
3.87279e-05
9.10927e-07
-1.43047e-06
3.87353e-05
1.11102e-06
-1.50878e-06
1.27758e-06
-1.54197e-06
5.27831e-05
2.02959e-06
-2.06033e-06
5.28105e-05
1.97672e-06
-1.96695e-06
5.27944e-05
1.73139e-06
-1.85711e-06
5.27211e-05
1.32374e-06
-1.74036e-06
5.25932e-05
8.41365e-07
-1.61991e-06
5.24136e-05
3.52892e-07
-1.4777e-06
5.21888e-05
-7.59704e-08
-1.32986e-06
5.19324e-05
-4.02065e-07
-1.19073e-06
5.16681e-05
-6.10329e-07
-1.07992e-06
5.14111e-05
-7.03699e-07
-1.00443e-06
5.11779e-05
-7.114e-07
-9.54497e-07
5.09751e-05
-6.09747e-07
-9.30304e-07
5.08061e-05
-4.39477e-07
-9.2097e-07
5.06727e-05
-2.02252e-07
-9.24702e-07
5.05754e-05
3.8147e-08
-9.38669e-07
5.05132e-05
2.77079e-07
-9.59189e-07
5.04748e-05
4.92471e-07
-9.88061e-07
5.04531e-05
6.71411e-07
-1.02666e-06
5.04363e-05
8.02693e-07
-1.07017e-06
5.04188e-05
8.49953e-07
-1.11088e-06
5.04014e-05
7.89524e-07
-1.12401e-06
5.03777e-05
6.44542e-07
-1.08864e-06
5.03509e-05
4.12703e-07
-9.96547e-07
5.0312e-05
1.99818e-07
-8.50536e-07
5.02591e-05
1.73256e-08
-6.82621e-07
5.01991e-05
-1.03808e-07
-5.20763e-07
5.0142e-05
-1.68834e-07
-4.0673e-07
5.01022e-05
-1.57519e-07
-3.59215e-07
5.00926e-05
-1.20804e-07
-3.73532e-07
5.01206e-05
-5.8758e-08
-4.38015e-07
5.01869e-05
3.96007e-08
-5.40402e-07
5.02892e-05
1.86783e-07
-6.68464e-07
5.04272e-05
3.99492e-07
-8.19826e-07
5.05935e-05
6.5668e-07
-9.85355e-07
5.07832e-05
9.31983e-07
-1.14837e-06
5.0996e-05
1.15439e-06
-1.29054e-06
5.12184e-05
1.26925e-06
-1.39373e-06
5.14469e-05
1.26007e-06
-1.44623e-06
5.16712e-05
1.12394e-06
-1.45698e-06
5.18833e-05
9.39966e-07
-1.4371e-06
5.20853e-05
7.57173e-07
-1.40171e-06
5.22703e-05
6.1641e-07
-1.36403e-06
5.2431e-05
5.45386e-07
-1.34484e-06
5.25572e-05
5.5496e-07
-1.37051e-06
5.26413e-05
6.465e-07
-1.45678e-06
5.26829e-05
8.62897e-07
-1.61101e-06
5.2697e-05
1.22051e-06
-1.82835e-06
5.27089e-05
1.56139e-06
-2.02173e-06
5.27232e-05
1.81019e-06
-2.12901e-06
1.96458e-06
-2.13159e-06
6.91217e-05
3.05136e-06
-2.85566e-06
6.91501e-05
2.91885e-06
-2.67908e-06
6.91055e-05
2.6171e-06
-2.51865e-06
6.89646e-05
2.16982e-06
-2.39158e-06
6.87207e-05
1.63238e-06
-2.26978e-06
6.83749e-05
1.02573e-06
-2.09079e-06
6.79446e-05
4.15227e-07
-1.86237e-06
6.74565e-05
-1.19887e-07
-1.61255e-06
6.69597e-05
-5.4674e-07
-1.37748e-06
6.64925e-05
-8.25221e-07
-1.19062e-06
6.60861e-05
-9.7503e-07
-1.05129e-06
6.5759e-05
-9.52562e-07
-9.66593e-07
6.55145e-05
-7.98829e-07
-9.27233e-07
6.53534e-05
-5.17461e-07
-9.31626e-07
6.52668e-05
-1.92369e-07
-9.70091e-07
6.52459e-05
1.57409e-07
-1.03207e-06
6.52679e-05
5.01213e-07
-1.11783e-06
6.53139e-05
8.1992e-07
-1.22861e-06
6.53662e-05
1.08506e-06
-1.34953e-06
6.54078e-05
1.24523e-06
-1.46104e-06
6.54349e-05
1.2409e-06
-1.51908e-06
6.54379e-05
1.08543e-06
-1.4828e-06
6.5413e-05
7.73986e-07
-1.34171e-06
6.5353e-05
4.29079e-07
-1.09851e-06
6.52566e-05
9.17799e-08
-8.09569e-07
6.51346e-05
-1.86978e-07
-5.22382e-07
6.50061e-05
-4.01938e-07
-2.95142e-07
6.48909e-05
-5.11442e-07
-1.54667e-07
6.48109e-05
-5.76308e-07
-9.81987e-08
6.47824e-05
-5.93243e-07
-1.13071e-07
6.48137e-05
-5.50924e-07
-1.82897e-07
6.49041e-05
-4.20503e-07
-2.97304e-07
6.50601e-05
-1.87899e-07
-4.52564e-07
6.52734e-05
1.43374e-07
-6.488e-07
6.55323e-05
5.37479e-07
-8.67867e-07
6.58396e-05
8.83416e-07
-1.07961e-06
6.61727e-05
1.11864e-06
-1.26156e-06
6.65209e-05
1.19591e-06
-1.38848e-06
6.6868e-05
1.1046e-06
-1.46244e-06
6.71976e-05
9.5145e-07
-1.49862e-06
6.75126e-05
7.91651e-07
-1.51387e-06
6.78052e-05
6.79928e-07
-1.52047e-06
6.80711e-05
6.37761e-07
-1.53325e-06
6.83039e-05
6.83378e-07
-1.57683e-06
6.84959e-05
8.31488e-07
-1.67882e-06
6.86483e-05
1.16439e-06
-1.87725e-06
6.87738e-05
1.75189e-06
-2.21992e-06
6.88898e-05
2.36644e-06
-2.61007e-06
6.89854e-05
2.81855e-06
-2.89477e-06
3.03784e-06
-2.96962e-06
8.77168e-05
4.26882e-06
-3.72789e-06
8.78764e-05
4.09632e-06
-3.54318e-06
8.79094e-05
3.76033e-06
-3.34477e-06
8.77857e-05
3.35106e-06
-3.23207e-06
8.74816e-05
2.89464e-06
-3.17193e-06
8.69742e-05
2.31712e-06
-3.03673e-06
8.62755e-05
1.61523e-06
-2.78038e-06
8.54206e-05
8.89691e-07
-2.43123e-06
8.44884e-05
1.88777e-07
-2.03941e-06
8.35672e-05
-3.93674e-07
-1.6748e-06
8.27315e-05
-8.38732e-07
-1.36085e-06
8.20402e-05
-1.06534e-06
-1.12054e-06
8.15197e-05
-1.09493e-06
-9.54239e-07
8.11834e-05
-9.15185e-07
-8.70931e-07
8.1019e-05
-6.18441e-07
-8.63723e-07
8.10047e-05
-2.3098e-07
-9.2096e-07
8.11015e-05
2.14016e-07
-1.04586e-06
8.12662e-05
7.03967e-07
-1.24913e-06
8.14635e-05
1.19004e-06
-1.51049e-06
8.16578e-05
1.5828e-06
-1.78124e-06
8.18265e-05
1.76863e-06
-1.98593e-06
8.19531e-05
1.70374e-06
-2.03327e-06
8.20198e-05
1.37037e-06
-1.89106e-06
8.20094e-05
9.0046e-07
-1.55443e-06
8.19192e-05
3.67974e-07
-1.10738e-06
8.17556e-05
-1.24367e-07
-6.38928e-07
8.15441e-05
-5.53239e-07
-2.3991e-07
8.13119e-05
-8.55536e-07
5.36513e-08
8.10884e-05
-1.081e-06
2.21342e-07
8.09034e-05
-1.2347e-06
2.90335e-07
8.07855e-05
-1.32689e-06
2.95067e-07
8.07493e-05
-1.30282e-06
2.40556e-07
8.08157e-05
-1.14154e-06
1.30319e-07
8.09911e-05
-8.20637e-07
-4.71678e-08
8.12558e-05
-3.4967e-07
-2.87567e-07
8.16114e-05
1.03022e-07
-5.42951e-07
8.20337e-05
4.52676e-07
-7.80398e-07
8.25042e-05
6.15039e-07
-9.60395e-07
8.30045e-05
5.51298e-07
-1.06944e-06
8.35083e-05
4.01504e-07
-1.12496e-06
8.40118e-05
2.54025e-07
-1.16484e-06
8.44997e-05
1.9667e-07
-1.21717e-06
8.49586e-05
2.51355e-07
-1.30672e-06
8.53807e-05
4.14444e-07
-1.4409e-06
8.57619e-05
6.776e-07
-1.62644e-06
8.61116e-05
1.11628e-06
-1.86532e-06
8.64552e-05
1.89923e-06
-2.25985e-06
8.68173e-05
2.83057e-06
-2.80411e-06
8.71676e-05
3.65353e-06
-3.35738e-06
4.15977e-06
-3.70524e-06
0.000107682
4.88729e-06
-4.0507e-06
0.000108253
4.85726e-06
-4.06265e-06
0.00010863
4.61302e-06
-3.9657e-06
0.000108787
4.37801e-06
-3.95922e-06
0.000108698
4.18813e-06
-4.05979e-06
0.000108303
3.88673e-06
-4.10814e-06
0.000107559
3.3451e-06
-3.96907e-06
0.000106462
2.63523e-06
-3.63439e-06
0.000105077
1.80298e-06
-3.15468e-06
0.000103532
9.81755e-07
-2.63635e-06
0.000101971
2.29533e-07
-2.13701e-06
0.000100541
-3.29977e-07
-1.69749e-06
9.9342e-05
-6.90127e-07
-1.32789e-06
9.84464e-05
-8.09306e-07
-1.04791e-06
9.78741e-05
-7.66321e-07
-8.64659e-07
9.76081e-05
-5.6724e-07
-7.81922e-07
9.76031e-05
-2.19271e-07
-8.24528e-07
9.7794e-05
3.07139e-07
-1.03222e-06
9.81181e-05
9.88246e-07
-1.4183e-06
9.85138e-05
1.67804e-06
-1.9055e-06
9.89251e-05
2.19726e-06
-2.37886e-06
9.93069e-05
2.39059e-06
-2.66385e-06
9.96152e-05
2.16625e-06
-2.65467e-06
9.98038e-05
1.6478e-06
-2.3074e-06
9.98571e-05
9.2148e-07
-1.71492e-06
9.97698e-05
1.71137e-07
-1.0195e-06
9.95605e-05
-5.28705e-07
-3.75377e-07
9.92551e-05
-1.07487e-06
1.38933e-07
9.8884e-05
-1.48278e-06
4.67021e-07
9.84764e-05
-1.7808e-06
6.52576e-07
9.80754e-05
-2.02351e-06
7.5569e-07
9.77281e-05
-2.16005e-06
7.91072e-07
9.74842e-05
-2.14645e-06
7.59366e-07
9.73959e-05
-1.94792e-06
6.5346e-07
9.74644e-05
-1.50832e-06
4.52401e-07
9.76886e-05
-1.02203e-06
2.04978e-07
9.80418e-05
-5.91275e-07
-6.2012e-08
9.84953e-05
-3.48836e-07
-2.91495e-07
9.90353e-05
-4.239e-07
-4.16484e-07
9.96437e-05
-6.78533e-07
-4.33141e-07
0.00010032
-9.7554e-07
-3.87931e-07
0.000101051
-1.13382e-06
-3.58154e-07
0.000101808
-1.07474e-06
-4.16677e-07
0.000102561
-7.96225e-07
-5.95265e-07
0.000103283
-3.49784e-07
-8.97295e-07
0.000103974
2.60975e-07
-1.26781e-06
0.000104663
1.22877e-06
-1.75028e-06
0.000105406
2.40588e-06
-2.37319e-06
0.000106194
3.56986e-06
-3.08713e-06
4.47163e-06
-3.72069e-06
0.000127248
3.95405e-06
-3.28678e-06
0.000128515
4.19335e-06
-3.57535e-06
0.000129555
4.20868e-06
-3.73792e-06
0.000130331
4.33539e-06
-3.99172e-06
0.000130848
4.60715e-06
-4.38757e-06
0.000131058
4.80841e-06
-4.78198e-06
0.000130863
4.69155e-06
-4.95413e-06
0.000130153
4.27332e-06
-4.81729e-06
0.000128865
3.59889e-06
-4.39864e-06
0.000127051
2.83994e-06
-3.84302e-06
0.000124866
2.07316e-06
-3.26627e-06
0.000122552
1.42272e-06
-2.72956e-06
0.00012034
8.85825e-07
-2.23623e-06
0.000118427
4.95238e-07
-1.78166e-06
0.000116934
1.75616e-07
-1.36725e-06
0.000115905
-5.16041e-08
-1.00829e-06
0.000115328
-1.14543e-07
-7.8293e-07
0.000115152
1.06399e-07
-7.81806e-07
0.000115309
7.14433e-07
-1.11024e-06
0.000115721
1.56607e-06
-1.72572e-06
0.000116303
2.42494e-06
-2.49422e-06
0.000116965
3.00861e-06
-3.1569e-06
0.000117615
3.06222e-06
-3.48026e-06
0.000118149
2.64389e-06
-3.31419e-06
0.000118509
1.80356e-06
-2.71043e-06
0.000118668
7.89166e-07
-1.83209e-06
0.000118633
-2.41226e-07
-9.06366e-07
0.000118422
-1.07518e-06
-1.19623e-07
0.000118058
-1.71891e-06
4.78824e-07
0.000117553
-2.15561e-06
8.44615e-07
0.000116912
-2.47732e-06
1.06839e-06
0.000116189
-2.71275e-06
1.20629e-06
0.000115458
-2.8249e-06
1.27239e-06
0.000114834
-2.79325e-06
1.27378e-06
0.000114393
-2.48047e-06
1.15797e-06
0.00011417
-2.02853e-06
9.36476e-07
0.00011415
-1.55725e-06
6.56925e-07
0.00011429
-1.25049e-06
4.04141e-07
0.000114565
-1.33281e-06
2.55943e-07
0.000114971
-1.74816e-06
2.78802e-07
0.000115533
-2.38933e-06
4.68726e-07
0.000116286
-2.97016e-06
7.29599e-07
0.000117231
-3.26686e-06
9.16425e-07
0.000118323
-3.15045e-06
8.96809e-07
0.000119496
-2.64089e-06
6.00228e-07
0.00012069
-1.80466e-06
6.17669e-08
0.000121883
-7.51558e-07
-4.38135e-07
0.000123133
6.29322e-07
-1.16437e-06
0.000124465
2.03313e-06
-1.96513e-06
3.22486e-06
-2.72972e-06
0.000144382
1.09602e-06
-1.40484e-06
0.000146377
1.49615e-06
-1.8153e-06
0.000148252
1.74675e-06
-2.20094e-06
0.000149905
2.30544e-06
-2.76357e-06
0.000151311
3.20267e-06
-3.56172e-06
0.000152466
4.09561e-06
-4.44466e-06
0.000153325
4.58454e-06
-5.12858e-06
0.000153772
4.57865e-06
-5.40007e-06
0.000153593
4.1684e-06
-5.20121e-06
0.000152604
3.64769e-06
-4.69231e-06
0.000150757
3.20447e-06
-4.11397e-06
0.000148229
2.95901e-06
-3.62779e-06
0.000145336
2.82719e-06
-3.25378e-06
0.000142431
2.71201e-06
-2.90498e-06
0.000139794
2.42887e-06
-2.48395e-06
0.000137592
1.93102e-06
-1.93066e-06
0.000135913
1.35577e-06
-1.35962e-06
0.000134781
9.52284e-07
-9.39658e-07
0.000134197
1.03819e-06
-9.09545e-07
0.000134122
1.65618e-06
-1.3772e-06
0.000134483
2.60737e-06
-2.27087e-06
0.000135164
3.53428e-06
-3.29116e-06
0.000136018
3.97794e-06
-4.07628e-06
0.000136863
3.84643e-06
-4.3229e-06
0.000137559
3.07155e-06
-3.95388e-06
0.000138021
1.90179e-06
-3.09672e-06
0.000138232
5.52205e-07
-2.00372e-06
0.000138216
-6.57194e-07
-9.16402e-07
0.000138006
-1.63914e-06
1.14584e-08
0.000137639
-2.30808e-06
6.91762e-07
0.000137066
-2.71575e-06
1.13162e-06
0.00013627
-2.97325e-06
1.40467e-06
0.000135268
-3.08048e-06
1.5551e-06
0.000134167
-3.09952e-06
1.64403e-06
0.000133118
-2.89232e-06
1.63607e-06
0.000132245
-2.51439e-06
1.50779e-06
0.000131606
-2.03452e-06
1.25838e-06
0.000131153
-1.61662e-06
9.61271e-07
0.000130828
-1.58732e-06
7.38643e-07
0.0001306
-2.05189e-06
7.4236e-07
0.000130508
-3.01855e-06
1.01651e-06
0.000130671
-4.22655e-06
1.50961e-06
0.000131216
-5.31338e-06
2.04859e-06
0.000132193
-5.91455e-06
2.41269e-06
0.000133557
-5.87526e-06
2.43988e-06
0.00013517
-5.17336e-06
2.09707e-06
0.000136886
-4.06119e-06
1.4829e-06
0.000138654
-2.61998e-06
7.15827e-07
0.000140482
-1.07272e-06
-9.8967e-08
2.44969e-07
-8.44422e-07
0.000158143
-3.04903e-06
9.82813e-07
0.000160408
-2.83957e-06
8.0962e-07
0.000162828
-2.71144e-06
5.18662e-07
0.000165329
-2.00685e-06
-1.64312e-07
0.000167777
-6.36115e-07
-1.23696e-06
0.000170049
1.0163e-06
-2.60743e-06
0.000172037
2.36618e-06
-3.95891e-06
0.000173717
2.99656e-06
-4.91453e-06
0.00017497
2.87605e-06
-5.21362e-06
0.000175589
2.37696e-06
-4.86944e-06
0.000175317
1.99845e-06
-4.21332e-06
0.000174038
2.13537e-06
-3.64951e-06
0.000171876
2.78228e-06
-3.43336e-06
0.000169141
3.68718e-06
-3.48955e-06
0.000166192
4.37477e-06
-3.55186e-06
0.000163291
4.50119e-06
-3.29487e-06
0.000160638
4.0252e-06
-2.68157e-06
0.000158364
3.21902e-06
-1.88467e-06
0.000156617
2.57758e-06
-1.28768e-06
0.000155509
2.49768e-06
-1.25245e-06
0.000155088
3.05156e-06
-1.92081e-06
0.000155292
3.98926e-06
-3.07241e-06
0.000155951
4.75364e-06
-4.26827e-06
0.000156812
5.05286e-06
-5.03025e-06
0.000157629
4.60827e-06
-5.10709e-06
0.000158229
3.56137e-06
-4.52345e-06
0.000158538
2.0974e-06
-3.50597e-06
0.000158583
5.86722e-07
-2.31536e-06
0.000158406
-7.89398e-07
-1.11859e-06
0.0001581
-1.86533e-06
-7.4151e-08
0.000157656
-2.5532e-06
7.41642e-07
0.000157044
-2.97416e-06
1.31772e-06
0.000156217
-3.11733e-06
1.65134e-06
0.000155193
-3.11709e-06
1.82852e-06
0.000154081
-2.93645e-06
1.88244e-06
0.00015301
-2.59146e-06
1.81546e-06
0.000152081
-2.07015e-06
1.60524e-06
0.000151261
-1.43446e-06
1.26589e-06
0.000150447
-1.04259e-06
9.12724e-07
0.000149514
-1.15876e-06
7.54898e-07
0.000148429
-2.03987e-06
9.58245e-07
0.000147342
-3.59798e-06
1.5647e-06
0.000146557
-5.52516e-06
2.42889e-06
0.00014638
-7.26504e-06
3.25039e-06
0.000146977
-8.37465e-06
3.75736e-06
0.000148262
-8.49373e-06
3.76706e-06
0.000149997
-7.78327e-06
3.32462e-06
0.000151955
-6.45593e-06
2.57708e-06
0.000153981
-4.96379e-06
1.82649e-06
-3.72671e-06
1.27189e-06
0.000170469
-6.88702e-06
2.97474e-06
0.000172277
-7.21971e-06
3.15268e-06
0.000174403
-7.70107e-06
3.28029e-06
0.000176992
-7.55199e-06
3.03112e-06
0.000179995
-6.32151e-06
2.12792e-06
0.000183216
-4.2752e-06
5.47524e-07
0.000186323
-2.20163e-06
-1.22373e-06
0.000189122
-6.57557e-07
-2.96946e-06
0.000191432
-7.05898e-08
-4.14249e-06
0.000193133
-3.53417e-07
-4.4094e-06
0.000194101
-9.50835e-07
-3.88337e-06
0.000194254
-1.08122e-06
-3.05851e-06
0.000193666
-3.45717e-07
-2.57146e-06
0.000192499
1.28278e-06
-2.75463e-06
0.000190975
3.21735e-06
-3.43933e-06
0.000189163
4.83133e-06
-4.04279e-06
0.000187118
5.5994e-06
-4.09903e-06
0.000184885
5.46475e-06
-3.47252e-06
0.000182656
4.77123e-06
-2.50745e-06
0.000180733
4.10528e-06
-1.80667e-06
0.000179406
3.94838e-06
-1.86521e-06
0.000178852
4.39474e-06
-2.74987e-06
0.000179002
5.08894e-06
-4.09725e-06
0.000179593
5.70444e-06
-5.30919e-06
0.000180268
5.76148e-06
-5.90641e-06
0.000180734
5.17963e-06
-5.72705e-06
0.000180841
4.02513e-06
-4.97661e-06
0.000180623
2.5582e-06
-3.89955e-06
0.000180163
1.021e-06
-2.71696e-06
0.000179594
-4.20026e-07
-1.50455e-06
0.000178957
-1.50975e-06
-3.52668e-07
0.000178237
-2.23693e-06
6.31572e-07
0.000177412
-2.60961e-06
1.37812e-06
0.000176502
-2.74214e-06
1.84649e-06
0.000175641
-2.73465e-06
2.07494e-06
0.000174982
-2.63418e-06
2.0838e-06
0.000174615
-2.31195e-06
1.88224e-06
0.000174436
-1.59799e-06
1.45682e-06
0.000174193
-7.16683e-07
8.7537e-07
0.000173532
3.58604e-08
3.61197e-07
0.000172204
7.41501e-08
2.11378e-07
0.000170197
-8.95195e-07
6.48275e-07
0.000167829
-2.88283e-06
1.65078e-06
0.000165638
-5.3999e-06
2.89831e-06
0.000164194
-7.83444e-06
4.01339e-06
0.000163775
-9.34246e-06
4.59405e-06
0.000164316
-9.71891e-06
4.55536e-06
0.000165551
-9.08249e-06
4.03099e-06
0.000167131
-8.0197e-06
3.42922e-06
-7.14321e-06
3.02705e-06
0.000186303
-8.53807e-06
4.27085e-06
0.00018712
-9.58669e-06
4.7119e-06
0.000188102
-1.09818e-05
5.30161e-06
0.000189617
-1.20134e-05
5.7157e-06
0.000191922
-1.18571e-05
5.47759e-06
0.00019503
-1.03769e-05
4.39958e-06
0.000198597
-8.1056e-06
2.47028e-06
0.000202166
-5.79973e-06
1.68703e-07
0.000205288
-4.27065e-06
-1.82957e-06
0.000207655
-3.75509e-06
-3.10429e-06
0.000209145
-4.15981e-06
-3.27352e-06
0.00020977
-4.61231e-06
-2.57281e-06
0.000209789
-4.4292e-06
-1.69676e-06
0.000209505
-3.04565e-06
-1.41561e-06
0.000209255
-7.54595e-07
-2.09647e-06
0.000209101
1.86973e-06
-3.33372e-06
0.000208934
4.0177e-06
-4.43518e-06
0.000208486
5.23768e-06
-4.73928e-06
0.000207591
5.48835e-06
-4.15341e-06
0.000206377
5.12112e-06
-3.20117e-06
0.000205184
4.72856e-06
-2.61541e-06
0.000204474
4.64319e-06
-2.87011e-06
0.000204468
4.87138e-06
-3.9217e-06
0.000205086
5.34719e-06
-5.26482e-06
0.000205918
5.66902e-06
-6.27953e-06
0.00020649
5.63482e-06
-6.54168e-06
0.00020646
5.1437e-06
-6.10958e-06
0.000205784
4.21412e-06
-5.21092e-06
0.000204658
2.96282e-06
-4.14049e-06
0.00020338
1.52819e-06
-3.03689e-06
0.000202181
1.72895e-07
-1.89177e-06
0.000201084
-8.66972e-07
-7.50333e-07
0.000199991
-1.43191e-06
3.43883e-07
0.00019879
-1.6257e-06
1.25338e-06
0.000197559
-1.65406e-06
1.91547e-06
0.000196579
-1.78151e-06
2.26422e-06
0.000196209
-1.96709e-06
2.25815e-06
0.000196635
-1.87417e-06
1.8689e-06
0.000197718
-1.34508e-06
1.08967e-06
0.00019891
-2.45064e-07
8.88078e-08
0.000199476
8.7885e-07
-7.35468e-07
0.000198781
1.45994e-06
-9.77396e-07
0.000196656
9.05353e-07
-4.13112e-07
0.000193452
-9.05742e-07
9.13254e-07
0.000189974
-3.61961e-06
2.58891e-06
0.000187045
-6.14948e-06
3.98488e-06
0.000185194
-7.85274e-06
4.7609e-06
0.00018453
-8.41669e-06
4.80508e-06
0.000184773
-8.30875e-06
4.49459e-06
-8.17437e-06
4.21415e-06
0.000210209
-7.08065e-06
4.70496e-06
0.000209919
-8.74227e-06
5.16582e-06
0.000209461
-1.0833e-05
5.97281e-06
0.000209126
-1.30491e-05
6.9725e-06
0.000209423
-1.44752e-05
7.63289e-06
0.000210828
-1.45912e-05
7.50346e-06
0.00021338
-1.32873e-05
6.25797e-06
0.000216722
-1.10544e-05
4.05715e-06
0.000220256
-8.81294e-06
1.40661e-06
0.000223304
-7.42186e-06
-8.07074e-07
0.00022543
-7.10941e-06
-1.99318e-06
0.000226407
-7.34359e-06
-1.93839e-06
0.000226444
-7.48837e-06
-1.09122e-06
0.000226002
-6.60804e-06
-3.57793e-07
0.00022566
-4.53728e-06
-5.98537e-07
0.000225765
-1.70958e-06
-1.81085e-06
0.000226363
1.07993e-06
-3.51644e-06
0.000227181
3.19201e-06
-4.83493e-06
0.0002278
4.37068e-06
-5.17313e-06
0.000228015
4.71184e-06
-4.68841e-06
0.000227854
4.72672e-06
-4.03644e-06
0.000227732
4.65412e-06
-3.88529e-06
0.000228068
4.58366e-06
-4.51925e-06
0.00022911
4.63508e-06
-5.63782e-06
0.000230692
4.64438e-06
-6.71812e-06
0.000232292
4.57033e-06
-7.1672e-06
0.000233275
4.41333e-06
-6.92644e-06
0.000233175
4.0599e-06
-6.10329e-06
0.000231981
3.36904e-06
-5.03623e-06
0.000230045
2.40668e-06
-4.03915e-06
0.000227924
1.24963e-06
-3.09587e-06
0.000226007
2.38322e-07
-2.2068e-06
0.00022439
-4.3196e-07
-1.15527e-06
0.000222927
-6.43681e-07
-7.9478e-08
0.000221423
-4.329e-07
9.4659e-07
0.000219872
-2.48753e-07
1.77067e-06
0.000218528
-2.41003e-07
2.20159e-06
0.000217836
-3.86117e-07
2.15752e-06
0.000218243
-5.73257e-07
1.51235e-06
0.000219871
-3.39364e-07
3.36117e-07
0.000222373
1.94898e-07
-1.01524e-06
0.000224884
9.93723e-07
-2.15042e-06
0.000226328
1.63229e-06
-2.55022e-06
0.000225883
1.76491e-06
-2.12452e-06
0.000223491
8.82277e-07
-8.41791e-07
0.000219857
-8.9598e-07
1.19838e-06
0.000216092
-2.82458e-06
3.05961e-06
0.000213135
-4.21362e-06
4.18282e-06
0.000211342
-5.1515e-06
4.59937e-06
-6.00171e-06
4.63457e-06
0.000243387
-3.76463e-06
4.35628e-06
0.000242045
-5.69414e-06
4.7429e-06
0.000240392
-7.85374e-06
5.37815e-06
0.000238314
-1.03841e-05
6.48381e-06
0.000236207
-1.2829e-05
7.74198e-06
0.000234833
-1.45847e-05
8.65846e-06
0.000234808
-1.50851e-05
8.596e-06
0.000236294
-1.41442e-05
7.28641e-06
0.000238958
-1.23332e-05
4.92662e-06
0.000242104
-1.04686e-05
2.08623e-06
0.000244921
-9.44285e-06
-9.18607e-10
0.000246675
-9.29723e-06
-7.81593e-07
0.000247146
-9.45802e-06
-3.2253e-07
0.000246607
-8.95108e-06
6.28349e-07
0.000245754
-7.15692e-06
8.25338e-07
0.000245211
-4.29477e-06
-2.49928e-08
0.000245297
-1.09112e-06
-1.76951e-06
0.000245973
1.6537e-06
-3.70294e-06
0.000246858
3.45751e-06
-4.94164e-06
0.000247663
4.24042e-06
-5.25569e-06
0.000248166
4.59237e-06
-5.06274e-06
0.000248496
4.8062e-06
-5.02533e-06
0.000248956
4.8928e-06
-5.59743e-06
0.00024995
4.8236e-06
-6.63814e-06
0.000251721
4.4165e-06
-7.80494e-06
0.000254092
3.75793e-06
-8.45409e-06
0.000256511
3.13674e-06
-8.36181e-06
0.000258112
2.69105e-06
-7.48164e-06
0.000258308
2.10713e-06
-6.04204e-06
0.000257022
1.42439e-06
-4.6417e-06
0.000254826
5.41432e-07
-3.56451e-06
0.000252436
-2.03905e-07
-2.91071e-06
0.000250291
-5.70645e-07
-2.33441e-06
0.000248459
-5.49391e-07
-1.56715e-06
0.000246728
-3.58712e-08
-5.21397e-07
0.000244938
5.57554e-07
5.81525e-07
0.000243094
1.14467e-06
1.48437e-06
0.000241448
1.4894e-06
1.91737e-06
0.000240458
1.43731e-06
1.66829e-06
0.000240576
1.36287e-06
6.26101e-07
0.000242076
1.0268e-06
-8.21156e-07
0.000244846
7.68098e-07
-2.45397e-06
0.000248334
5.04602e-07
-3.67629e-06
0.000251606
5.91049e-07
-4.3242e-06
0.000253651
8.17378e-07
-4.0557e-06
0.000253854