/*--------------------------------*- C++ -*----------------------------------*\
| =========                 |                                                 |
| \\      /  F ield         | OpenFOAM: The Open Source CFD Toolbox           |
|  \\    /   O peration     | Version:  2.3.0                                 |
|   \\  /    A nd           | Web:      www.OpenFOAM.org                      |
|    \\/     M anipulation  |                                                 |
\*---------------------------------------------------------------------------*/
FoamFile
{
    version     2.0;
    format      ascii;
    class       surfaceScalarField;
    location    "300";
    object      phi_0;
}
// * * * * * * * * * * * * * * * * * * * * * * * * * * * * * * * * * * * * * //

dimensions      [0 3 -1 0 0 0 0];

internalField   nonuniform List<scalar> 
263700
(
2.75482e-06
1.14044e-07
-2.16589e-07
2.75398e-06
1.16526e-07
-2.05692e-07
2.74503e-06
1.11138e-07
-1.86672e-07
2.73125e-06
8.00203e-08
-1.59046e-07
2.72173e-06
4.35489e-08
-1.40238e-07
2.71547e-06
1.12965e-08
-1.26213e-07
2.70977e-06
-1.48623e-08
-1.13835e-07
2.70375e-06
-3.41491e-08
-1.02774e-07
2.69647e-06
-4.65246e-08
-9.26201e-08
2.68956e-06
-5.50672e-08
-8.32739e-08
2.68415e-06
-6.05055e-08
-7.34113e-08
2.67929e-06
-6.00695e-08
-6.36344e-08
2.67487e-06
-5.45202e-08
-5.45906e-08
2.66964e-06
-4.27351e-08
-4.78007e-08
2.66533e-06
-2.98754e-08
-4.40058e-08
2.66172e-06
-1.58011e-08
-4.25006e-08
2.65731e-06
-8.17738e-10
-4.38395e-08
2.65115e-06
1.35362e-08
-4.89726e-08
2.64212e-06
2.60585e-08
-5.96202e-08
2.63449e-06
3.23034e-08
-7.69864e-08
2.63225e-06
3.13053e-08
-9.70629e-08
2.63749e-06
2.43911e-08
-1.14067e-07
2.65132e-06
1.23686e-08
-1.22278e-07
2.66699e-06
4.76637e-09
-1.17929e-07
2.6796e-06
2.19542e-09
-1.0385e-07
2.6846e-06
6.11453e-09
-8.52407e-08
2.68302e-06
1.2148e-08
-7.01132e-08
2.67771e-06
1.96829e-08
-6.31163e-08
2.67272e-06
2.51133e-08
-6.38811e-08
2.67239e-06
2.6116e-08
-6.95498e-08
2.67665e-06
2.60751e-08
-7.65513e-08
2.68563e-06
2.59405e-08
-8.42289e-08
2.69549e-06
3.04492e-08
-9.20038e-08
2.70494e-06
3.72342e-08
-9.99831e-08
2.71072e-06
4.76061e-08
-1.07279e-07
2.71237e-06
5.6179e-08
-1.11394e-07
2.71304e-06
5.7146e-08
-1.11531e-07
2.71372e-06
5.25418e-08
-1.07362e-07
2.71818e-06
4.00004e-08
-9.97599e-08
2.72648e-06
2.18829e-08
-8.73768e-08
2.73879e-06
3.14125e-09
-7.4121e-08
2.75406e-06
-1.04029e-08
-6.21316e-08
2.76759e-06
-1.57608e-08
-5.35644e-08
2.7775e-06
-1.61471e-08
-5.10393e-08
2.78113e-06
-1.10098e-08
-5.54367e-08
2.77481e-06
2.26549e-09
-6.81664e-08
2.76292e-06
1.61519e-08
-9.12677e-08
2.75631e-06
4.65037e-08
-1.38569e-07
2.7539e-06
7.749e-08
-1.84035e-07
1.01201e-07
-2.1257e-07
9.17522e-06
3.39292e-07
-5.39357e-07
9.17434e-06
3.42496e-07
-5.20501e-07
9.16087e-06
3.03039e-07
-4.78904e-07
9.1397e-06
2.11521e-07
-4.30403e-07
9.12026e-06
1.11084e-07
-3.94032e-07
9.10038e-06
2.23298e-08
-3.61935e-07
9.07682e-06
-4.81189e-08
-3.32353e-07
9.04937e-06
-9.78816e-08
-3.05247e-07
9.01826e-06
-1.28052e-07
-2.80331e-07
8.98704e-06
-1.46175e-07
-2.57121e-07
8.95766e-06
-1.53533e-07
-2.3451e-07
8.92977e-06
-1.44518e-07
-2.13914e-07
8.9043e-06
-1.22859e-07
-1.96298e-07
8.88012e-06
-8.70466e-08
-1.83555e-07
8.86017e-06
-5.00624e-08
-1.77598e-07
8.84358e-06
-1.05709e-08
-1.77357e-07
8.82897e-06
2.82619e-08
-1.84283e-07
8.81537e-06
6.27748e-08
-1.99414e-07
8.80259e-06
8.9877e-08
-2.2362e-07
8.79666e-06
9.97678e-08
-2.54936e-07
8.80085e-06
9.19912e-08
-2.84437e-07
8.8159e-06
7.14659e-08
-3.03628e-07
8.83996e-06
4.20179e-08
-3.05542e-07
8.8623e-06
2.56072e-08
-2.87982e-07
8.87765e-06
2.1711e-08
-2.59764e-07
8.88161e-06
3.39326e-08
-2.30786e-07
8.8786e-06
5.16935e-08
-2.14848e-07
8.87385e-06
7.50951e-08
-2.16367e-07
8.87354e-06
9.21516e-08
-2.30411e-07
8.88261e-06
1.00832e-07
-2.52199e-07
8.89985e-06
1.07737e-07
-2.74892e-07
8.92419e-06
1.15692e-07
-2.9685e-07
8.95002e-06
1.3378e-07
-3.16115e-07
8.97592e-06
1.54948e-07
-3.32208e-07
8.99797e-06
1.81496e-07
-3.43592e-07
9.01726e-06
1.98761e-07
-3.46619e-07
9.03764e-06
1.95354e-07
-3.41199e-07
9.05991e-06
1.76463e-07
-3.2704e-07
9.08732e-06
1.36085e-07
-3.05644e-07
9.11779e-06
8.66891e-08
-2.8088e-07
9.14984e-06
4.15805e-08
-2.57854e-07
9.18026e-06
8.90424e-09
-2.39035e-07
9.20223e-06
-5.15121e-09
-2.28996e-07
9.21375e-06
-7.45432e-09
-2.32151e-07
9.21248e-06
3.75644e-09
-2.49839e-07
9.19755e-06
3.52423e-08
-2.84226e-07
9.17894e-06
8.63547e-08
-3.47336e-07
9.16996e-06
1.64364e-07
-4.25354e-07
9.16873e-06
2.41373e-07
-4.94613e-07
3.03288e-07
-5.34406e-07
1.71818e-05
6.25392e-07
-8.45444e-07
1.71924e-05
6.20647e-07
-8.19039e-07
1.7185e-05
5.28481e-07
-7.60159e-07
1.71625e-05
3.63322e-07
-6.97179e-07
1.71331e-05
1.85912e-07
-6.46561e-07
1.7095e-05
3.02091e-08
-6.00937e-07
1.70453e-05
-9.03078e-08
-5.59662e-07
1.69858e-05
-1.71663e-07
-5.22696e-07
1.6919e-05
-2.16703e-07
-4.8987e-07
1.68505e-05
-2.38535e-07
-4.59618e-07
1.67843e-05
-2.4035e-07
-4.3073e-07
1.67215e-05
-2.14433e-07
-4.03913e-07
1.66647e-05
-1.69547e-07
-3.79803e-07
1.66138e-05
-1.0367e-07
-3.60895e-07
1.65727e-05
-3.84091e-08
-3.50502e-07
1.65404e-05
2.93303e-08
-3.47417e-07
1.65151e-05
9.24752e-08
-3.53484e-07
1.64952e-05
1.46235e-07
-3.69597e-07
1.64792e-05
1.85604e-07
-3.95654e-07
1.64722e-05
1.95781e-07
-4.28623e-07
1.64761e-05
1.76775e-07
-4.57437e-07
1.64908e-05
1.37779e-07
-4.72794e-07
1.6514e-05
8.57472e-08
-4.68036e-07
1.65339e-05
5.66086e-08
-4.41461e-07
1.65466e-05
4.79304e-08
-4.05465e-07
1.65484e-05
6.77142e-08
-3.73133e-07
1.6545e-05
9.97958e-08
-3.61755e-07
1.65432e-05
1.44989e-07
-3.74909e-07
1.65493e-05
1.81574e-07
-4.05648e-07
1.65683e-05
2.08241e-07
-4.47326e-07
1.65989e-05
2.33063e-07
-4.90318e-07
1.66399e-05
2.60859e-07
-5.31437e-07
1.66859e-05
3.03579e-07
-5.67566e-07
1.67354e-05
3.48648e-07
-5.96433e-07
1.67843e-05
3.98188e-07
-6.16289e-07
1.68332e-05
4.27061e-07
-6.21878e-07
1.68844e-05
4.17712e-07
-6.13312e-07
1.69374e-05
3.78701e-07
-5.91384e-07
1.6993e-05
3.01641e-07
-5.59843e-07
1.70481e-05
2.14163e-07
-5.26429e-07
1.71006e-05
1.3642e-07
-4.96533e-07
1.71466e-05
7.84269e-08
-4.72955e-07
1.7179e-05
4.93986e-08
-4.61617e-07
1.71957e-05
3.97729e-08
-4.67336e-07
1.71949e-05
5.26498e-08
-4.91099e-07
1.71775e-05
1.03977e-07
-5.37318e-07
1.71573e-05
2.01924e-07
-6.18513e-07
1.71499e-05
3.30491e-07
-7.09663e-07
1.7154e-05
4.58605e-07
-7.91569e-07
5.64359e-07
-8.39211e-07
2.69979e-05
9.57438e-07
-1.15675e-06
2.70253e-05
9.39498e-07
-1.12256e-06
2.70278e-05
7.8638e-07
-1.04964e-06
2.70053e-05
5.38147e-07
-9.71496e-07
2.69643e-05
2.71955e-07
-9.04799e-07
2.69035e-05
3.72631e-08
-8.43574e-07
2.68211e-05
-1.42483e-07
-7.89604e-07
2.67215e-05
-2.59544e-07
-7.43744e-07
2.66103e-05
-3.1792e-07
-7.07011e-07
2.64952e-05
-3.36873e-07
-6.75462e-07
2.63837e-05
-3.24388e-07
-6.46473e-07
2.6278e-05
-2.70795e-07
-6.19097e-07
2.6183e-05
-1.93086e-07
-5.92235e-07
2.60997e-05
-8.83352e-08
-5.69081e-07
2.6033e-05
1.14508e-08
-5.5368e-07
2.59819e-05
1.11975e-07
-5.45375e-07
2.59431e-05
2.0131e-07
-5.4628e-07
2.59139e-05
2.74303e-07
-5.58065e-07
2.589e-05
3.24379e-07
-5.80114e-07
2.58757e-05
3.31076e-07
-6.09127e-07
2.58716e-05
2.94002e-07
-6.31949e-07
2.58772e-05
2.26599e-07
-6.37351e-07
2.58915e-05
1.38277e-07
-6.19243e-07
2.5902e-05
8.30736e-08
-5.76218e-07
2.59059e-05
5.55845e-08
-5.23463e-07
2.59011e-05
7.10473e-08
-4.78284e-07
2.58939e-05
1.10515e-07
-4.62898e-07
2.58926e-05
1.76245e-07
-4.82254e-07
2.59035e-05
2.35976e-07
-5.28159e-07
2.59318e-05
2.89887e-07
-5.92605e-07
2.59765e-05
3.45617e-07
-6.63135e-07
2.60364e-05
4.09767e-07
-7.34064e-07
2.61071e-05
4.95848e-07
-8.01397e-07
2.61862e-05
5.84397e-07
-8.58833e-07
2.62702e-05
6.74408e-07
-9.02978e-07
2.63582e-05
7.28545e-07
-9.2544e-07
2.64498e-05
7.20429e-07
-9.2392e-07
2.65437e-05
6.6134e-07
-9.01058e-07
2.66373e-05
5.4353e-07
-8.63135e-07
2.67268e-05
4.12629e-07
-8.21008e-07
2.68104e-05
2.96791e-07
-7.83272e-07
2.68828e-05
2.10326e-07
-7.54277e-07
2.69361e-05
1.65141e-07
-7.41788e-07
2.69668e-05
1.49875e-07
-7.50949e-07
2.69729e-05
1.66307e-07
-7.80843e-07
2.69566e-05
2.40822e-07
-8.36066e-07
2.69361e-05
3.86238e-07
-9.25977e-07
2.69304e-05
5.58469e-07
-1.02084e-06
2.69409e-05
7.29775e-07
-1.10511e-06
8.74436e-07
-1.15318e-06
3.88029e-05
1.37989e-06
-1.52143e-06
3.88389e-05
1.34306e-06
-1.47143e-06
3.88416e-05
1.12781e-06
-1.38364e-06
3.88076e-05
7.88257e-07
-1.28616e-06
3.87415e-05
4.1532e-07
-1.194e-06
3.86433e-05
7.41297e-08
-1.10189e-06
3.85138e-05
-1.94912e-07
-1.01846e-06
3.83606e-05
-3.74203e-07
-9.48214e-07
3.81948e-05
-4.64496e-07
-8.97764e-07
3.8026e-05
-4.86826e-07
-8.62379e-07
3.78653e-05
-4.58453e-07
-8.35713e-07
3.77162e-05
-3.6591e-07
-8.1582e-07
3.75839e-05
-2.38922e-07
-7.96814e-07
3.74708e-05
-7.54738e-08
-7.811e-07
3.73817e-05
7.83301e-08
-7.71031e-07
3.73156e-05
2.28978e-07
-7.66181e-07
3.72666e-05
3.59509e-07
-7.69018e-07
3.72308e-05
4.62921e-07
-7.81746e-07
3.72003e-05
5.31431e-07
-8.02856e-07
3.71768e-05
5.37014e-07
-8.27582e-07
3.71608e-05
4.75534e-07
-8.39232e-07
3.71498e-05
3.658e-07
-8.2333e-07
3.71457e-05
2.16102e-07
-7.73874e-07
3.71359e-05
1.05662e-07
-6.92615e-07
3.71192e-05
2.85089e-08
-5.9973e-07
3.7097e-05
7.21967e-09
-5.17146e-07
3.70764e-05
2.64675e-08
-4.75254e-07
3.70681e-05
9.31934e-08
-4.82979e-07
3.70799e-05
1.63061e-07
-5.31246e-07
3.71164e-05
2.40435e-07
-6.11572e-07
3.71766e-05
3.32424e-07
-7.10068e-07
3.7259e-05
4.47375e-07
-8.1765e-07
3.73608e-05
5.99558e-07
-9.30697e-07
3.74778e-05
7.62723e-07
-1.03828e-06
3.7607e-05
9.26024e-07
-1.13166e-06
3.77469e-05
1.03728e-06
-1.19821e-06
3.78923e-05
1.05694e-06
-1.22825e-06
3.80417e-05
9.92826e-07
-1.2227e-06
3.81884e-05
8.42355e-07
-1.19106e-06
3.83276e-05
6.70219e-07
-1.14544e-06
3.84586e-05
5.14209e-07
-1.09952e-06
3.85741e-05
4.00112e-07
-1.06358e-06
3.86656e-05
3.45318e-07
-1.05174e-06
3.87258e-05
3.4178e-07
-1.07455e-06
3.87513e-05
3.86754e-07
-1.13005e-06
3.87448e-05
5.12396e-07
-1.21822e-06
3.87273e-05
7.24709e-07
-1.33652e-06
3.87216e-05
9.39333e-07
-1.43966e-06
3.87323e-05
1.1333e-06
-1.51242e-06
1.29166e-06
-1.5387e-06
5.27804e-05
2.02131e-06
-2.04259e-06
5.28041e-05
1.94479e-06
-1.94809e-06
5.278e-05
1.67223e-06
-1.83712e-06
5.26992e-05
1.24861e-06
-1.72081e-06
5.25641e-05
7.61951e-07
-1.5986e-06
5.2378e-05
2.78658e-07
-1.4545e-06
5.21487e-05
-1.37401e-07
-1.30746e-06
5.18906e-05
-4.45909e-07
-1.17152e-06
5.16275e-05
-6.36538e-07
-1.06569e-06
5.13742e-05
-7.14627e-07
-9.94922e-07
5.11462e-05
-7.07243e-07
-9.49135e-07
5.09493e-05
-5.91231e-07
-9.28747e-07
5.07861e-05
-4.09919e-07
-9.22208e-07
5.06585e-05
-1.6652e-07
-9.28659e-07
5.05669e-05
7.37057e-08
-9.44447e-07
5.05093e-05
3.10804e-07
-9.6611e-07
5.04735e-05
5.22461e-07
-9.96147e-07
5.0453e-05
6.95734e-07
-1.0356e-06
5.04362e-05
8.17836e-07
-1.07908e-06
5.04185e-05
8.50948e-07
-1.1173e-06
5.04006e-05
7.75827e-07
-1.12449e-06
5.0376e-05
6.18315e-07
-1.08083e-06
5.03476e-05
3.81635e-07
-9.7958e-07
5.03061e-05
1.72147e-07
-8.27039e-07
5.02508e-05
-3.86239e-09
-6.57494e-07
5.01895e-05
-1.16755e-07
-4.99546e-07
5.01332e-05
-1.73124e-07
-3.94025e-07
5.00961e-05
-1.52807e-07
-3.56894e-07
5.00908e-05
-1.14267e-07
-3.79017e-07
5.01235e-05
-4.77413e-08
-4.49644e-07
5.01941e-05
5.70752e-08
-5.56429e-07
5.03002e-05
2.13609e-07
-6.87967e-07
5.04415e-05
4.35854e-07
-8.42052e-07
5.06104e-05
6.98537e-07
-1.0086e-06
5.08024e-05
9.72941e-07
-1.17028e-06
5.10171e-05
1.18517e-06
-1.30884e-06
5.12405e-05
1.28292e-06
-1.40627e-06
5.14693e-05
1.25564e-06
-1.45293e-06
5.16927e-05
1.10588e-06
-1.45919e-06
5.19035e-05
9.19104e-07
-1.4367e-06
5.21039e-05
7.38408e-07
-1.39976e-06
5.22859e-05
6.05424e-07
-1.36278e-06
5.24421e-05
5.45239e-07
-1.3478e-06
5.25627e-05
5.6628e-07
-1.38047e-06
5.264e-05
6.73644e-07
-1.47422e-06
5.2676e-05
9.13118e-07
-1.63767e-06
5.26892e-05
1.27669e-06
-1.85682e-06
5.27017e-05
1.60075e-06
-2.03842e-06
5.27178e-05
1.83202e-06
-2.13036e-06
1.97195e-06
-2.11944e-06
6.91189e-05
3.02958e-06
-2.82572e-06
6.91393e-05
2.87458e-06
-2.64906e-06
6.90808e-05
2.54963e-06
-2.49425e-06
6.89252e-05
2.08588e-06
-2.37102e-06
6.86662e-05
1.53742e-06
-2.24466e-06
6.83066e-05
9.26321e-07
-2.05738e-06
6.78665e-05
3.22125e-07
-1.82433e-06
6.73745e-05
-1.97304e-07
-1.57484e-06
6.68807e-05
-6.04498e-07
-1.34478e-06
6.64218e-05
-8.61866e-07
-1.16543e-06
6.60273e-05
-9.8919e-07
-1.03362e-06
6.57136e-05
-9.42902e-07
-9.572e-07
6.54825e-05
-7.69201e-07
-9.25053e-07
6.53341e-05
-4.74246e-07
-9.36221e-07
6.52589e-05
-1.44718e-07
-9.79693e-07
6.52467e-05
2.06357e-07
-1.0454e-06
6.5274e-05
5.48747e-07
-1.13473e-06
6.53222e-05
8.62538e-07
-1.24802e-06
6.53745e-05
1.11664e-06
-1.36889e-06
6.54147e-05
1.25694e-06
-1.4755e-06
6.54396e-05
1.22886e-06
-1.52236e-06
6.54396e-05
1.05105e-06
-1.47093e-06
6.54103e-05
7.26318e-07
-1.3137e-06
6.53448e-05
3.79627e-07
-1.05878e-06
6.52433e-05
4.74406e-08
-7.66357e-07
6.51182e-05
-2.22181e-07
-4.84026e-07
6.49898e-05
-4.25902e-07
-2.68011e-07
6.48775e-05
-5.21433e-07
-1.41208e-07
6.4803e-05
-5.81374e-07
-9.62317e-08
6.47816e-05
-5.90373e-07
-1.19759e-07
6.48202e-05
-5.36999e-07
-1.965e-07
6.4918e-05
-3.91407e-07
-3.16905e-07
6.50808e-05
-1.42484e-07
-4.77879e-07
6.52998e-05
2.00811e-07
-6.78479e-07
6.55638e-05
5.97264e-07
-8.9853e-07
6.58753e-05
9.32692e-07
-1.10778e-06
6.62112e-05
1.14699e-06
-1.28383e-06
6.65604e-05
1.20077e-06
-1.40386e-06
6.69066e-05
1.09159e-06
-1.47223e-06
6.72343e-05
9.35199e-07
-1.50566e-06
6.75471e-05
7.77982e-07
-1.51924e-06
6.78361e-05
6.75133e-07
-1.52587e-06
6.80973e-05
6.44773e-07
-1.54106e-06
6.83245e-05
7.04277e-07
-1.59066e-06
6.851e-05
8.73929e-07
-1.70182e-06
6.86569e-05
1.24591e-06
-1.91902e-06
6.87808e-05
1.85152e-06
-2.27615e-06
6.88949e-05
2.4435e-06
-2.65716e-06
6.89881e-05
2.85822e-06
-2.91429e-06
3.04178e-06
-2.95656e-06
8.77378e-05
4.24642e-06
-3.70452e-06
8.78813e-05
4.043e-06
-3.5071e-06
8.78917e-05
3.69295e-06
-3.31864e-06
8.77424e-05
3.27615e-06
-3.21827e-06
8.74088e-05
2.80638e-06
-3.15474e-06
8.68709e-05
2.21005e-06
-3.00313e-06
8.61459e-05
1.49772e-06
-2.73078e-06
8.52738e-05
7.75276e-07
-2.37262e-06
8.43376e-05
8.64794e-08
-1.98067e-06
8.34251e-05
-4.7567e-07
-1.62267e-06
8.26081e-05
-8.94085e-07
-1.31832e-06
8.19419e-05
-1.08822e-06
-1.08971e-06
8.14488e-05
-1.08706e-06
-9.35622e-07
8.11398e-05
-8.82548e-07
-8.6493e-07
8.10002e-05
-5.71896e-07
-8.68748e-07
8.1006e-05
-1.74137e-07
-9.35914e-07
8.11164e-05
2.7905e-07
-1.0715e-06
8.12887e-05
7.7299e-07
-1.28473e-06
8.14886e-05
1.25234e-06
-1.55082e-06
8.16818e-05
1.6221e-06
-1.81668e-06
8.18471e-05
1.7731e-06
-2.00426e-06
8.19681e-05
1.66975e-06
-2.02519e-06
8.20263e-05
1.30723e-06
-1.85367e-06
8.20055e-05
8.2334e-07
-1.49398e-06
8.19045e-05
2.90443e-07
-1.03754e-06
8.17321e-05
-1.92944e-07
-5.73769e-07
8.1516e-05
-6.07133e-07
-1.90474e-07
8.12828e-05
-8.90923e-07
8.60538e-08
8.10628e-05
-1.10688e-06
2.36482e-07
8.08848e-05
-1.25027e-06
2.94045e-07
8.07766e-05
-1.32888e-06
2.90209e-07
8.07522e-05
-1.28437e-06
2.27595e-07
8.08316e-05
-1.09951e-06
1.09228e-07
8.10191e-05
-7.55029e-07
-7.83849e-08
8.12946e-05
-2.74047e-07
-3.23479e-07
8.16596e-05
1.70347e-07
-5.78363e-07
8.20895e-05
4.95177e-07
-8.09645e-07
8.25655e-05
6.26994e-07
-9.80685e-07
8.30689e-05
5.37934e-07
-1.08116e-06
8.35738e-05
3.84509e-07
-1.13335e-06
8.40769e-05
2.44625e-07
-1.17447e-06
8.45617e-05
2.03786e-07
-1.23174e-06
8.50152e-05
2.76286e-07
-1.32806e-06
8.54309e-05
4.55249e-07
-1.46917e-06
8.5806e-05
7.39596e-07
-1.66085e-06
8.61522e-05
1.22536e-06
-1.91496e-06
8.64981e-05
2.04489e-06
-2.3343e-06
8.68611e-05
2.96671e-06
-2.88822e-06
8.72074e-05
3.74664e-06
-3.42274e-06
4.19074e-06
-3.72352e-06
0.000107772
4.8978e-06
-4.06705e-06
0.000108318
4.81823e-06
-4.04767e-06
0.000108662
4.56566e-06
-3.95508e-06
0.000108784
4.33768e-06
-3.96722e-06
0.000108653
4.141e-06
-4.07036e-06
0.000108207
3.81028e-06
-4.09717e-06
0.000107409
3.2371e-06
-3.92746e-06
0.000106262
2.50914e-06
-3.56753e-06
0.000104843
1.67099e-06
-3.07556e-06
0.000103285
8.58345e-07
-2.55751e-06
0.000101734
1.26465e-07
-2.06539e-06
0.000100333
-4.01587e-07
-1.6366e-06
9.91759e-05
-7.28111e-07
-1.27973e-06
9.83276e-05
-8.16682e-07
-1.01446e-06
9.78028e-05
-7.52455e-07
-8.46479e-07
9.75789e-05
-5.32049e-07
-7.80522e-07
9.76072e-05
-1.59546e-07
-8.44419e-07
9.78218e-05
3.92629e-07
-1.07755e-06
9.81605e-05
1.08616e-06
-1.48388e-06
9.85631e-05
1.7615e-06
-1.97595e-06
9.89747e-05
2.24101e-06
-2.43252e-06
9.93511e-05
2.37709e-06
-2.67951e-06
9.96477e-05
2.09905e-06
-2.62134e-06
9.982e-05
1.54389e-06
-2.23016e-06
9.98551e-05
8.03025e-07
-1.61334e-06
9.97502e-05
5.74907e-08
-9.16427e-07
9.9527e-05
-6.23775e-07
-2.90192e-07
9.92109e-05
-1.14175e-06
1.98283e-07
9.88336e-05
-1.53393e-06
5.02405e-07
9.84244e-05
-1.81831e-06
6.71423e-07
9.80276e-05
-2.04797e-06
7.63835e-07
9.76907e-05
-2.1627e-06
7.89503e-07
9.74639e-05
-2.12125e-06
7.47459e-07
9.7396e-05
-1.8899e-06
6.29388e-07
9.74847e-05
-1.42872e-06
4.18494e-07
9.7727e-05
-9.45435e-07
1.69719e-07
9.80955e-05
-5.34005e-07
-9.96175e-08
9.85621e-05
-3.33446e-07
-3.15293e-07
9.91143e-05
-4.4983e-07
-4.24846e-07
9.97342e-05
-7.20666e-07
-4.28865e-07
0.000100421
-1.0083e-06
-3.82464e-07
0.000101159
-1.13661e-06
-3.62647e-07
0.000101918
-1.04103e-06
-4.38766e-07
0.000102666
-7.30997e-07
-6.36825e-07
0.000103383
-2.57205e-07
-9.52642e-07
0.000104068
4.0182e-07
-1.33481e-06
0.000104762
1.41451e-06
-1.8386e-06
0.000105514
2.59519e-06
-2.47809e-06
0.000106306
3.72808e-06
-3.19231e-06
4.5609e-06
-3.78945e-06
0.000127446
4.01356e-06
-3.34611e-06
0.000128686
4.19522e-06
-3.60407e-06
0.000129688
4.211e-06
-3.76886e-06
0.000130426
4.3602e-06
-4.04464e-06
0.0001309
4.63519e-06
-4.45051e-06
0.000131056
4.80093e-06
-4.82337e-06
0.00013079
4.63352e-06
-4.95095e-06
0.000129994
4.17725e-06
-4.7672e-06
0.00012862
3.48074e-06
-4.31782e-06
0.000126736
2.71976e-06
-3.75308e-06
0.000124515
1.96315e-06
-3.18074e-06
0.000122201
1.33262e-06
-2.65224e-06
0.000120022
8.16162e-07
-2.16644e-06
0.000118165
4.4234e-07
-1.71844e-06
0.000116739
1.31853e-07
-1.3121e-06
0.000115778
-7.7863e-08
-9.67358e-07
0.000115263
-1.07014e-07
-7.68574e-07
0.000115139
1.66068e-07
-8.0943e-07
0.000115338
8.22344e-07
-1.18355e-06
0.00011578
1.68957e-06
-1.83012e-06
0.00011638
2.52298e-06
-2.59861e-06
0.000117047
3.04094e-06
-3.22337e-06
0.00011769
3.01508e-06
-3.48037e-06
0.000118204
2.52775e-06
-3.24243e-06
0.000118539
1.64459e-06
-2.58593e-06
0.000118672
6.20458e-07
-1.68799e-06
0.000118614
-3.91915e-07
-7.73638e-07
0.000118381
-1.19705e-06
-4.67568e-09
0.000118
-1.80116e-06
5.47293e-07
0.000117477
-2.21195e-06
8.85549e-07
0.000116821
-2.51615e-06
1.0925e-06
0.000116092
-2.73187e-06
1.21891e-06
0.000115367
-2.81987e-06
1.27506e-06
0.000114762
-2.75381e-06
1.263e-06
0.000114348
-2.40823e-06
1.13098e-06
0.000114153
-1.94612e-06
8.97765e-07
0.000114158
-1.48895e-06
6.17521e-07
0.000114318
-1.23053e-06
3.75993e-07
0.000114614
-1.3742e-06
2.48705e-07
0.000115042
-1.83697e-06
2.999e-07
0.000115634
-2.49043e-06
5.05933e-07
0.000116419
-3.04078e-06
7.64674e-07
0.000117391
-3.27832e-06
9.26953e-07
0.0001185
-3.09384e-06
8.67551e-07
0.000119676
-2.52222e-06
5.30722e-07
0.000120866
-1.64728e-06
-7.58672e-09
0.000122062
-5.33722e-07
-5.3828e-07
0.000123323
8.61787e-07
-1.28406e-06
0.000124666
2.24277e-06
-2.08989e-06
3.36889e-06
-2.8295e-06
0.000144684
1.18313e-06
-1.47548e-06
0.000146672
1.53388e-06
-1.87617e-06
0.00014852
1.80597e-06
-2.27609e-06
0.000150138
2.41857e-06
-2.87645e-06
0.000151505
3.33878e-06
-3.69904e-06
0.00015262
4.18984e-06
-4.56857e-06
0.000153426
4.60088e-06
-5.19962e-06
0.000153793
4.52766e-06
-5.39666e-06
0.000153502
4.08151e-06
-5.13562e-06
0.000152381
3.56773e-06
-4.60063e-06
0.000150415
3.15172e-06
-4.03028e-06
0.000147809
2.93424e-06
-3.5643e-06
0.000144893
2.81279e-06
-3.20328e-06
0.000142012
2.68487e-06
-2.85064e-06
0.000139431
2.36844e-06
-2.41471e-06
0.000137302
1.84593e-06
-1.84966e-06
0.000135702
1.27814e-06
-1.28896e-06
0.000134649
9.28144e-07
-9.1142e-07
0.000134142
1.09491e-06
-9.49301e-07
0.000134135
1.77727e-06
-1.4862e-06
0.000134549
2.74559e-06
-2.41742e-06
0.000135264
3.6254e-06
-3.42234e-06
0.000136128
3.97975e-06
-4.14072e-06
0.000136959
3.74959e-06
-4.2942e-06
0.000137626
2.89479e-06
-3.8403e-06
0.000138054
1.68493e-06
-2.93223e-06
0.000138234
3.37423e-07
-1.82853e-06
0.000138192
-8.41058e-07
-7.6127e-07
0.000137963
-1.77276e-06
1.32337e-07
0.000137575
-2.39482e-06
7.73669e-07
0.000136975
-2.76729e-06
1.18203e-06
0.000136149
-2.99517e-06
1.43295e-06
0.000135124
-3.07876e-06
1.56988e-06
0.000134018
-3.06988e-06
1.64717e-06
0.000132984
-2.82917e-06
1.62296e-06
0.000132139
-2.4301e-06
1.47652e-06
0.000131528
-1.9496e-06
1.21502e-06
0.000131095
-1.57434e-06
9.21647e-07
0.000130785
-1.62317e-06
7.23865e-07
0.000130575
-2.17488e-06
7.69175e-07
0.000130517
-3.20567e-06
1.08091e-06
0.000130733
-4.41888e-06
1.5931e-06
0.000131346
-5.45281e-06
2.11845e-06
0.000132386
-5.95617e-06
2.43921e-06
0.000133796
-5.80289e-06
2.41091e-06
0.000135428
-5.01009e-06
2.01934e-06
0.000137148
-3.83875e-06
1.37521e-06
0.000138922
-2.36132e-06
5.94839e-07
0.000140761
-8.32362e-07
-2.22535e-07
4.15399e-07
-9.42319e-07
0.000158479
-2.98779e-06
9.52728e-07
0.000160772
-2.8222e-06
7.73393e-07
0.000163213
-2.6509e-06
4.43969e-07
0.000165717
-1.84281e-06
-3.06649e-07
0.000168144
-3.89618e-07
-1.4414e-06
0.000170377
1.24835e-06
-2.83033e-06
0.000172319
2.5057e-06
-4.14496e-06
0.000173942
3.01636e-06
-5.00784e-06
0.000175114
2.80257e-06
-5.19645e-06
0.000175613
2.29221e-06
-4.77491e-06
0.000175191
1.97627e-06
-4.11001e-06
0.000173767
2.20245e-06
-3.58925e-06
0.000171498
2.91216e-06
-3.42908e-06
0.000168709
3.81687e-06
-3.50752e-06
0.000165756
4.43845e-06
-3.5459e-06
0.00016288
4.47026e-06
-3.23391e-06
0.000160275
3.9217e-06
-2.5784e-06
0.000158069
3.10679e-06
-1.78495e-06
0.000156409
2.52758e-06
-1.24945e-06
0.0001554
2.54344e-06
-1.31391e-06
0.000155075
3.17192e-06
-2.0706e-06
0.000155356
4.11629e-06
-3.25412e-06
0.000156058
4.81892e-06
-4.40851e-06
0.000156924
5.01458e-06
-5.07394e-06
0.000157714
4.46141e-06
-5.04234e-06
0.000158271
3.33749e-06
-4.37722e-06
0.000158539
1.84169e-06
-3.3198e-06
0.000158552
3.41701e-07
-2.12446e-06
0.000158356
-9.95468e-07
-9.43073e-07
0.000158039
-2.00891e-06
6.66836e-08
0.000157581
-2.64654e-06
8.46176e-07
0.000156945
-3.01472e-06
1.38332e-06
0.000156092
-3.11883e-06
1.68613e-06
0.000155048
-3.08889e-06
1.8423e-06
0.000153932
-2.87593e-06
1.87774e-06
0.000152874
-2.50129e-06
1.79037e-06
0.000151961
-1.95701e-06
1.55877e-06
0.000151146
-1.33839e-06
1.20952e-06
0.000150319
-1.0158e-06
8.72076e-07
0.000149362
-1.24799e-06
7.63209e-07
0.000148265
-2.25489e-06
1.02788e-06
0.000147203
-3.89399e-06
1.68652e-06
0.000146494
-5.83274e-06
2.5633e-06
0.000146429
-7.49643e-06
3.35137e-06
0.000147139
-8.46247e-06
3.7951e-06
0.000148504
-8.42432e-06
3.7318e-06
0.000150281
-7.5951e-06
3.23357e-06
0.000152255
-6.20712e-06
2.46481e-06
0.000154286
-4.73013e-06
1.73108e-06
-3.57326e-06
1.2133e-06
0.000170733
-6.90352e-06
2.99376e-06
0.000172585
-7.29442e-06
3.17954e-06
0.000174778
-7.72884e-06
3.26394e-06
0.000177442
-7.42031e-06
2.93071e-06
0.000180492
-6.04082e-06
1.91466e-06
0.000183716
-3.93724e-06
2.65807e-07
0.000186786
-1.90781e-06
-1.52398e-06
0.000189516
-4.92889e-07
-3.208e-06
0.000191737
-7.03552e-08
-4.24952e-06
0.000193331
-4.49533e-07
-4.36825e-06
0.000194176
-1.02104e-06
-3.75905e-06
0.000194208
-1.03355e-06
-2.945e-06
0.000193522
-1.49038e-07
-2.55214e-06
0.000192291
1.56977e-06
-2.83343e-06
0.000190727
3.50007e-06
-3.55756e-06
0.000188881
5.01433e-06
-4.10614e-06
0.000186805
5.64146e-06
-4.06107e-06
0.000184559
5.39375e-06
-3.35449e-06
0.000182356
4.66586e-06
-2.38818e-06
0.000180505
4.05058e-06
-1.77371e-06
0.000179284
3.98274e-06
-1.95789e-06
0.000178843
4.48886e-06
-2.93598e-06
0.000179074
5.18318e-06
-4.29583e-06
0.000179694
5.73517e-06
-5.43346e-06
0.000180345
5.69043e-06
-5.91187e-06
0.000180755
5.01239e-06
-5.62612e-06
0.000180802
3.79156e-06
-4.81204e-06
0.000180539
2.29848e-06
-3.71061e-06
0.000180057
7.67832e-07
-2.5241e-06
0.000179482
-6.32011e-07
-1.3181e-06
0.000178844
-1.65939e-06
-1.87401e-07
0.000178117
-2.32167e-06
7.64635e-07
0.000177284
-2.64105e-06
1.46864e-06
0.000176377
-2.7398e-06
1.89655e-06
0.00017554
-2.70851e-06
2.0892e-06
0.000174925
-2.57882e-06
2.06432e-06
0.000174597
-2.20544e-06
1.82786e-06
0.000174429
-1.45066e-06
1.37155e-06
0.000174145
-5.74628e-07
7.84638e-07
0.000173395
9.34222e-08
3.08458e-07
0.000171957
-2.4274e-08
2.40278e-07
0.000169862
-1.15325e-06
7.71373e-07
0.000167478
-3.26691e-06
1.83674e-06
0.000165363
-5.80634e-06
3.0847e-06
0.000164058
-8.14797e-06
4.14894e-06
0.00016379
-9.47118e-06
4.63649e-06
0.000164451
-9.66691e-06
4.51276e-06
0.00016576
-8.92207e-06
3.95153e-06
0.000167369
-7.85039e-06
3.36247e-06
-7.05406e-06
3.00324e-06
0.000186411
-8.66563e-06
4.32544e-06
0.000187247
-9.79712e-06
4.80255e-06
0.000188293
-1.11811e-05
5.38127e-06
0.000189924
-1.20673e-05
5.72319e-06
0.000192361
-1.16999e-05
5.35455e-06
0.000195572
-1.00454e-05
4.1333e-06
0.000199172
-7.71807e-06
2.0978e-06
0.000202695
-5.50106e-06
-1.57998e-07
0.000205716
-4.1119e-06
-2.10153e-06
0.000207946
-3.77086e-06
-3.20519e-06
0.000209294
-4.24483e-06
-3.21103e-06
0.000209801
-4.64165e-06
-2.42581e-06
0.000209752
-4.29951e-06
-1.5959e-06
0.000209454
-2.74323e-06
-1.4554e-06
0.000209224
-3.53144e-07
-2.27045e-06
0.000209085
2.25002e-06
-3.5408e-06
0.000208899
4.27928e-06
-4.56078e-06
0.000208396
5.34386e-06
-4.72457e-06
0.000207443
5.4729e-06
-4.04049e-06
0.00020621
5.0644e-06
-3.09609e-06
0.000205065
4.70023e-06
-2.61286e-06
0.000204454
4.66125e-06
-2.99505e-06
0.000204553
4.92273e-06
-4.12095e-06
0.000205229
5.39165e-06
-5.44271e-06
0.000206042
5.66289e-06
-6.35544e-06
0.000206527
5.5615e-06
-6.49696e-06
0.000206382
5.00053e-06
-5.97631e-06
0.000205609
4.01373e-06
-5.0372e-06
0.000204435
2.72723e-06
-3.96044e-06
0.000203157
1.29099e-06
-2.85672e-06
0.000201982
-2.81513e-08
-1.71064e-06
0.0002009
-9.93598e-07
-5.73738e-07
0.000199805
-1.48246e-06
5.00273e-07
0.000198597
-1.62807e-06
1.375e-06
0.000197388
-1.64622e-06
1.99179e-06
0.000196482
-1.78396e-06
2.28694e-06
0.000196231
-1.95085e-06
2.22082e-06
0.000196782
-1.80429e-06
1.76711e-06
0.000197932
-1.20348e-06
9.41673e-07
0.000199087
-6.48729e-08
-7.04545e-08
0.000199498
9.97892e-07
-8.21178e-07
0.000198579
1.44357e-06
-9.46095e-07
0.000196245
6.92368e-07
-2.55138e-07
0.000192926
-1.28468e-06
1.16163e-06
0.000189468
-4.05659e-06
2.84725e-06
0.000186666
-6.47795e-06
4.16387e-06
0.000184988
-8.00207e-06
4.82782e-06
0.000184485
-8.42861e-06
4.79165e-06
0.000184829
-8.27709e-06
4.46083e-06
-8.19693e-06
4.21249e-06
0.000210129
-7.31633e-06
4.76428e-06
0.000209824
-9.06259e-06
5.28306e-06
0.000209364
-1.11914e-05
6.12753e-06
0.0002091
-1.33384e-05
7.10708e-06
0.000209551
-1.45788e-05
7.66541e-06
0.00021115
-1.44606e-05
7.37206e-06
0.000213863
-1.29637e-05
5.95146e-06
0.000217282
-1.0667e-05
3.63349e-06
0.000220784
-8.5102e-06
9.84881e-07
0.00022371
-7.29237e-06
-1.07887e-06
0.000225659
-7.11337e-06
-2.06786e-06
0.000226464
-7.38917e-06
-1.83735e-06
0.000226389
-7.43155e-06
-9.43142e-07
0.000225922
-6.35811e-06
-3.16631e-07
0.000225632
-4.128e-06
-7.31414e-07
0.000225819
-1.24627e-06
-2.07096e-06
0.000226477
1.4768e-06
-3.7825e-06
0.000227298
3.44695e-06
-4.98165e-06
0.00022787
4.48351e-06
-5.17108e-06
0.000228028
4.74039e-06
-4.61242e-06
0.00022785
4.72883e-06
-3.99595e-06
0.000227778
4.64806e-06
-3.95069e-06
0.000228216
4.57653e-06
-4.67857e-06
0.00022936
4.61852e-06
-5.81406e-06
0.00023098
4.60657e-06
-6.82027e-06
0.000232516
4.51627e-06
-7.15096e-06
0.00023334
4.33838e-06
-6.80693e-06
0.000233045
3.9452e-06
-5.92631e-06
0.000231694
3.21003e-06
-4.85875e-06
0.000229685
2.21726e-06
-3.88318e-06
0.000227573
1.06347e-06
-2.9534e-06
0.000225706
1.05245e-07
-2.05601e-06
0.000224131
-4.91141e-07
-9.86371e-07
0.000222681
-6.22835e-07
8.44574e-08
0.000221171
-3.75831e-07
1.0937e-06
0.000219636
-2.0483e-07
1.86841e-06
0.000218365
-2.22944e-07
2.22693e-06
0.00021782
-3.90395e-07
2.09203e-06
0.000218422
-5.56124e-07
1.35167e-06
0.000220232
-2.81047e-07
1.19877e-07
0.000222815
2.8456e-07
-1.22765e-06
0.000225241
1.09171e-06
-2.27768e-06
0.000226438
1.67798e-06
-2.54013e-06
0.000225664
1.688e-06
-1.97235e-06
0.000223003
6.64213e-07
-5.75744e-07
0.000219256
-1.20971e-06
1.53666e-06
0.000215544
-3.07109e-06
3.30798e-06
0.000212748
-4.3881e-06
4.31243e-06
0.00021112
-5.28879e-06
4.6444e-06
-6.16196e-06
4.65579e-06
0.000243135
-4.06571e-06
4.43045e-06
0.000241769
-6.04041e-06
4.83894e-06
0.000240045
-8.24428e-06
5.5318e-06
0.000237928
-1.07929e-05
6.68636e-06
0.000235889
-1.3165e-05
7.92094e-06
0.000234704
-1.47456e-05
8.71771e-06
0.000234927
-1.50106e-05
8.46284e-06
0.00023664
-1.38772e-05
6.9572e-06
0.000239437
-1.20006e-05
4.4776e-06
0.000242586
-1.02179e-05
1.67053e-06
0.000245276
-9.3574e-06
-2.14232e-07
0.000246827
-9.31109e-06
-7.77991e-07
0.000247109
-9.44145e-06
-1.76613e-07
0.000246465
-8.75561e-06
7.37748e-07
0.000245623
-6.75758e-06
7.59934e-07
0.000245164
-3.78476e-06
-2.51273e-07
0.000245349
-5.83831e-07
-2.09898e-06
0.00024609
2.02286e-06
-3.98146e-06
0.000246986
3.65862e-06
-5.08119e-06
0.000247765
4.33008e-06
-5.2798e-06
0.000248237
4.64415e-06
-5.06536e-06
0.000248573
4.83742e-06
-5.09496e-06
0.000249097
4.89001e-06
-5.75062e-06
0.000250206
4.76268e-06
-6.82521e-06
0.000252091
4.2922e-06
-7.9399e-06
0.000254511
3.60972e-06
-8.46914e-06
0.000256852
3.00861e-06
-8.2445e-06
0.000258248
2.57247e-06
-7.25667e-06
0.000258189
1.97521e-06
-5.78911e-06
0.0002567
1.27456e-06
-4.43559e-06
0.000254418
3.96503e-07
-3.43159e-06
0.000252042
-2.896e-07
-2.82283e-06
0.00024995
-5.79758e-07
-2.23421e-06
0.000248155
-4.78629e-07
-1.42379e-06
0.000246428
8.11131e-08
-3.44707e-07
0.000244633
6.85364e-07
7.47163e-07
0.000242803
1.2507e-06
1.59162e-06
0.000241232
1.53468e-06
1.92509e-06
0.00024039
1.44471e-06
1.54734e-06
0.000240718
1.32949e-06
4.00127e-07
0.000242441
9.6573e-07
-1.09547e-06
0.000245381
6.96132e-07
-2.70365e-06
0.000248918
4.64752e-07
-3.83566e-06
0.000252068
6.0026e-07
-4.35231e-06
0.000253849
8.49112e-07
-3.91736e-06
0.000253739
9.74633e-07