/*--------------------------------*- C++ -*----------------------------------*\
| =========                 |                                                 |
| \\      /  F ield         | OpenFOAM: The Open Source CFD Toolbox           |
|  \\    /   O peration     | Version:  2.3.0                                 |
|   \\  /    A nd           | Web:      www.OpenFOAM.org                      |
|    \\/     M anipulation  |                                                 |
\*---------------------------------------------------------------------------*/
FoamFile
{
    version     2.0;
    format      ascii;
    class       volScalarField;
    location    "300";
    object      pMean;
}
// * * * * * * * * * * * * * * * * * * * * * * * * * * * * * * * * * * * * * //

dimensions      [0 2 -2 0 0 0 0];

internalField   nonuniform List<scalar> 
90000
(
0.00115536
0.00115533
0.00115518
0.00115443
0.00115355
0.00115262
0.00115175
0.00115097
0.00115006
0.00114922
0.00114838
0.00114747
0.00114697
0.00114638
0.0011456
0.00114538
0.00114511
0.00114468
0.00114421
0.001144
0.00114338
0.00114315
0.00114331
0.00114333
0.00114308
0.00114249
0.00114219
0.00114213
0.00114221
0.00114243
0.0011424
0.00114268
0.00114344
0.00114388
0.00114405
0.00114438
0.00114496
0.00114575
0.00114662
0.00114699
0.00114747
0.0011485
0.00114926
0.00114943
0.00114971
0.00115047
0.00115137
0.0011522
0.00115317
0.00115465
0.00115535
0.0011553
0.00115514
0.00115439
0.00115351
0.00115258
0.00115171
0.00115094
0.00115002
0.00114918
0.00114834
0.00114743
0.00114692
0.00114634
0.00114555
0.00114535
0.00114509
0.00114466
0.00114419
0.00114397
0.00114335
0.00114313
0.00114328
0.0011433
0.00114306
0.00114245
0.00114216
0.00114208
0.00114215
0.00114239
0.00114235
0.00114261
0.00114338
0.00114384
0.00114401
0.00114434
0.00114494
0.00114575
0.00114662
0.00114697
0.00114747
0.00114846
0.00114922
0.00114939
0.00114968
0.00115043
0.00115134
0.00115218
0.00115313
0.00115463
0.00115526
0.00115524
0.00115508
0.00115432
0.00115343
0.00115251
0.00115165
0.00115087
0.00114996
0.00114913
0.00114831
0.0011474
0.00114689
0.00114631
0.00114551
0.0011453
0.00114505
0.00114461
0.00114413
0.00114391
0.00114327
0.00114302
0.00114319
0.00114322
0.00114298
0.00114239
0.00114208
0.001142
0.00114209
0.00114235
0.00114234
0.00114257
0.00114331
0.00114376
0.00114392
0.00114426
0.00114486
0.00114567
0.00114654
0.00114689
0.00114739
0.00114836
0.00114911
0.0011493
0.00114957
0.00115031
0.0011512
0.00115207
0.00115306
0.00115453
0.00115526
0.00115522
0.00115504
0.00115425
0.00115333
0.00115242
0.00115154
0.00115074
0.0011498
0.00114898
0.00114816
0.00114723
0.00114669
0.00114614
0.00114541
0.00114517
0.00114494
0.00114454
0.00114403
0.00114379
0.00114322
0.00114302
0.00114316
0.00114313
0.00114292
0.00114229
0.00114192
0.00114183
0.00114188
0.00114214
0.00114221
0.00114244
0.00114314
0.00114361
0.0011438
0.00114413
0.00114476
0.0011456
0.00114648
0.00114687
0.00114734
0.0011483
0.00114902
0.00114922
0.00114951
0.00115021
0.00115104
0.0011519
0.00115283
0.00115434
0.00115515
0.00115522
0.00115497
0.00115409
0.00115311
0.00115221
0.00115135
0.00115055
0.00114965
0.00114885
0.00114813
0.00114726
0.00114664
0.00114611
0.0011453
0.00114495
0.00114473
0.00114433
0.00114381
0.00114352
0.00114295
0.00114279
0.00114299
0.00114295
0.00114271
0.00114215
0.00114172
0.00114166
0.00114179
0.00114218
0.00114231
0.00114249
0.00114306
0.00114349
0.00114369
0.00114403
0.00114467
0.00114547
0.0011463
0.00114671
0.00114716
0.00114812
0.00114887
0.00114908
0.00114932
0.00115001
0.00115079
0.00115172
0.00115261
0.00115404
0.00115479
0.00115515
0.00115488
0.00115393
0.00115282
0.0011519
0.00115103
0.00115014
0.00114917
0.00114836
0.00114755
0.00114668
0.00114603
0.00114556
0.00114491
0.00114452
0.0011443
0.00114401
0.00114354
0.00114332
0.00114283
0.00114275
0.00114297
0.00114282
0.00114253
0.00114192
0.00114146
0.00114138
0.00114142
0.00114178
0.00114213
0.00114237
0.00114288
0.00114327
0.00114343
0.00114375
0.00114445
0.00114529
0.0011461
0.00114657
0.00114708
0.00114808
0.00114882
0.00114903
0.00114924
0.00114992
0.0011507
0.00115148
0.00115228
0.00115346
0.0011546
0.0011548
0.00115424
0.00115318
0.00115207
0.00115115
0.00115038
0.00114953
0.00114863
0.00114787
0.00114716
0.00114639
0.00114571
0.00114521
0.00114461
0.00114417
0.00114393
0.00114363
0.00114307
0.00114274
0.00114235
0.00114235
0.00114269
0.00114251
0.00114213
0.00114153
0.00114093
0.00114099
0.00114115
0.0011415
0.00114188
0.00114218
0.00114267
0.0011431
0.00114326
0.00114353
0.00114418
0.00114495
0.00114562
0.00114612
0.00114671
0.00114763
0.00114818
0.00114826
0.00114851
0.0011494
0.00115018
0.00115105
0.00115173
0.00115305
0.00115352
0.00115393
0.00115347
0.00115248
0.00115137
0.00115042
0.0011497
0.00114874
0.00114769
0.0011469
0.0011462
0.00114566
0.00114507
0.00114469
0.0011443
0.00114363
0.00114321
0.00114297
0.00114263
0.00114222
0.0011418
0.0011418
0.00114228
0.00114219
0.00114175
0.00114124
0.00114065
0.0011405
0.00114036
0.00114046
0.00114088
0.00114133
0.00114167
0.00114186
0.00114194
0.00114226
0.001143
0.00114392
0.00114481
0.00114558
0.00114612
0.00114692
0.00114738
0.00114762
0.00114801
0.00114898
0.00114972
0.00115034
0.00115076
0.00115173
0.00115246
0.00115305
0.00115259
0.00115165
0.00115044
0.00114943
0.00114849
0.00114756
0.00114674
0.00114622
0.00114566
0.00114505
0.00114439
0.00114411
0.00114408
0.00114344
0.00114298
0.00114265
0.00114205
0.00114133
0.00114084
0.00114102
0.00114146
0.00114114
0.00114043
0.00113994
0.00113956
0.00113965
0.00113953
0.00113964
0.00114005
0.00114039
0.00114053
0.00114057
0.00114073
0.00114102
0.00114162
0.0011425
0.00114339
0.00114425
0.00114491
0.00114574
0.00114638
0.00114697
0.00114757
0.00114831
0.00114854
0.00114877
0.00114914
0.00115035
0.0011512
0.001152
0.00115144
0.00115041
0.00114927
0.00114829
0.00114737
0.00114655
0.00114574
0.00114517
0.00114446
0.0011439
0.00114334
0.00114299
0.00114294
0.00114234
0.00114192
0.00114157
0.00114115
0.00114054
0.00114019
0.0011403
0.00114057
0.00114009
0.00113942
0.00113908
0.00113895
0.00113906
0.00113885
0.00113878
0.00113891
0.00113922
0.00113953
0.00113983
0.00114016
0.00114029
0.00114041
0.00114085
0.00114138
0.00114214
0.00114297
0.00114391
0.00114461
0.0011454
0.00114614
0.00114682
0.00114699
0.00114721
0.00114763
0.00114878
0.00115045
0.00115153
0.00115113
0.00114989
0.00114839
0.00114714
0.00114626
0.00114558
0.00114477
0.00114418
0.00114349
0.00114306
0.00114252
0.00114207
0.00114184
0.00114138
0.00114103
0.00114075
0.00114045
0.00113987
0.00113951
0.0011395
0.00113974
0.0011396
0.00113924
0.00113916
0.00113882
0.0011385
0.00113791
0.00113771
0.00113773
0.0011381
0.00113852
0.00113881
0.00113906
0.00113945
0.00113966
0.0011399
0.00114017
0.00114088
0.00114149
0.0011423
0.00114309
0.00114404
0.00114466
0.00114515
0.00114567
0.00114633
0.00114685
0.0011479
0.00115021
0.00115107
0.0011507
0.0011496
0.00114804
0.00114664
0.00114548
0.00114482
0.00114417
0.00114366
0.00114296
0.00114246
0.00114188
0.00114153
0.00114169
0.00114153
0.00114113
0.00114033
0.00113957
0.00113886
0.00113873
0.00113889
0.00113927
0.00113931
0.00113893
0.00113889
0.00113869
0.00113821
0.00113761
0.00113715
0.00113682
0.0011369
0.00113733
0.00113786
0.00113844
0.00113913
0.00113971
0.00114006
0.00114024
0.00114077
0.00114125
0.00114184
0.00114253
0.00114346
0.00114409
0.0011443
0.00114472
0.00114563
0.00114651
0.00114813
0.00114886
0.00114976
0.0011497
0.00114882
0.00114761
0.0011466
0.00114571
0.00114493
0.00114398
0.00114329
0.00114274
0.00114244
0.00114206
0.00114177
0.00114153
0.00114101
0.00114036
0.00113961
0.00113888
0.00113826
0.00113808
0.00113803
0.00113817
0.00113819
0.0011382
0.00113858
0.00113861
0.00113831
0.00113751
0.00113669
0.00113623
0.00113612
0.00113658
0.00113736
0.00113808
0.00113866
0.00113908
0.00113947
0.00113978
0.00114047
0.00114103
0.00114183
0.00114263
0.0011434
0.00114403
0.00114441
0.0011449
0.00114559
0.00114656
0.00114715
0.00114727
0.00114815
0.00114831
0.00114765
0.00114617
0.0011449
0.00114406
0.00114336
0.0011426
0.00114212
0.00114178
0.00114144
0.00114101
0.00114073
0.00114086
0.00114074
0.00114037
0.0011395
0.00113867
0.00113805
0.00113758
0.00113704
0.00113671
0.00113667
0.00113684
0.00113715
0.00113699
0.00113662
0.00113604
0.00113558
0.00113528
0.00113523
0.00113572
0.00113664
0.00113755
0.00113838
0.00113901
0.00113938
0.00113961
0.00114017
0.00114071
0.0011417
0.00114277
0.00114358
0.00114367
0.00114375
0.00114419
0.00114478
0.00114514
0.00114579
0.00114626
0.00114677
0.00114687
0.00114643
0.00114564
0.00114483
0.001144
0.00114315
0.0011424
0.00114187
0.00114106
0.00114026
0.00113944
0.00113896
0.00113885
0.00113853
0.00113808
0.00113717
0.00113633
0.00113581
0.00113552
0.0011354
0.00113547
0.0011356
0.00113595
0.00113628
0.00113588
0.00113558
0.00113532
0.00113518
0.00113503
0.00113503
0.0011354
0.00113592
0.00113637
0.00113707
0.00113768
0.00113803
0.00113836
0.00113884
0.00113928
0.00114025
0.00114154
0.00114255
0.00114321
0.00114373
0.00114423
0.0011445
0.00114472
0.00114546
0.00114485
0.00114506
0.0011447
0.00114408
0.00114351
0.00114291
0.00114215
0.00114144
0.00114077
0.00114002
0.00113919
0.00113863
0.00113833
0.00113813
0.00113805
0.00113765
0.00113707
0.00113614
0.00113535
0.00113468
0.00113417
0.00113398
0.001134
0.0011337
0.00113326
0.00113316
0.00113304
0.00113305
0.00113295
0.00113299
0.00113294
0.00113297
0.00113313
0.00113349
0.00113419
0.00113511
0.00113572
0.00113603
0.00113662
0.00113726
0.00113761
0.00113831
0.00113921
0.00113985
0.00114048
0.00114135
0.00114207
0.00114257
0.00114288
0.00114356
0.00114265
0.00114326
0.00114352
0.00114345
0.00114313
0.0011423
0.00114116
0.00114026
0.0011395
0.00113866
0.00113789
0.00113735
0.00113698
0.00113649
0.00113595
0.00113544
0.00113476
0.00113408
0.00113376
0.00113301
0.00113219
0.00113164
0.00113133
0.00113096
0.00113071
0.00113103
0.00113134
0.00113162
0.00113172
0.00113163
0.00113132
0.00113096
0.00113089
0.00113091
0.00113131
0.00113216
0.00113246
0.00113308
0.00113378
0.00113398
0.00113423
0.00113521
0.00113652
0.00113766
0.0011386
0.00113938
0.00114001
0.00114053
0.00114102
0.00114162
0.00114065
0.00114197
0.00114244
0.0011422
0.00114141
0.00114003
0.00113867
0.00113773
0.00113702
0.00113649
0.0011359
0.00113525
0.00113439
0.00113356
0.00113319
0.00113321
0.001133
0.00113283
0.00113303
0.00113258
0.0011319
0.00113097
0.00113025
0.00112993
0.00112986
0.00113002
0.00113018
0.00113052
0.00113051
0.0011299
0.00112897
0.00112865
0.00112903
0.00112935
0.00112996
0.00113037
0.00112984
0.0011303
0.00113104
0.00113161
0.00113244
0.00113381
0.0011351
0.00113611
0.00113674
0.0011372
0.00113757
0.00113808
0.00113881
0.00113938
0.00114098
0.00114238
0.00114273
0.00114207
0.0011409
0.00113973
0.00113907
0.00113858
0.00113803
0.00113753
0.00113663
0.00113563
0.00113468
0.00113417
0.00113394
0.00113393
0.00113347
0.00113337
0.00113371
0.00113341
0.00113273
0.00113171
0.00113119
0.0011313
0.00113153
0.00113135
0.00113121
0.00113136
0.00113134
0.00113098
0.00113074
0.00113092
0.0011314
0.00113136
0.00113159
0.00113131
0.00113103
0.00113175
0.00113235
0.00113292
0.00113431
0.00113541
0.0011358
0.00113685
0.00113799
0.00113847
0.00113884
0.0011396
0.00114062
0.00114078
0.00114674
0.00114915
0.0011487
0.00114697
0.00114474
0.00114301
0.00114201
0.00114126
0.00114087
0.00114026
0.00113881
0.00113745
0.00113659
0.0011357
0.00113516
0.0011353
0.00113512
0.00113552
0.00113613
0.00113604
0.00113538
0.00113481
0.00113437
0.0011344
0.00113489
0.00113488
0.00113501
0.0011353
0.00113448
0.00113328
0.0011322
0.00113185
0.00113164
0.00113115
0.00113141
0.00113173
0.00113283
0.0011342
0.00113472
0.00113582
0.0011374
0.0011385
0.00114004
0.00114172
0.00114293
0.00114331
0.00114363
0.00114449
0.00114512
0.001145
0.00113645
0.00114921
0.00114906
0.00114697
0.00114493
0.00114396
0.00114352
0.00114293
0.00114234
0.00114152
0.00114022
0.00113893
0.00113782
0.00113624
0.00113513
0.00113467
0.00113449
0.00113512
0.00113492
0.0011355
0.00113487
0.00113436
0.0011341
0.00113403
0.00113442
0.00113479
0.00113488
0.00113458
0.00113366
0.00113341
0.00113314
0.00113363
0.00113336
0.00113236
0.00113161
0.00113167
0.00113319
0.00113533
0.00113591
0.00113557
0.00113648
0.00113584
0.00113894
0.00113967
0.00114031
0.00114111
0.00114202
0.0011421
0.00114337
0.00113545
0.00114364
0.00114611
0.00114635
0.00114564
0.00114406
0.00114242
0.0011412
0.00114065
0.0011403
0.00113972
0.00113871
0.00113769
0.00113682
0.00113591
0.00113539
0.00113534
0.00113575
0.00113624
0.00113606
0.00113695
0.00113716
0.00113693
0.00113648
0.00113636
0.0011367
0.00113723
0.00113681
0.00113625
0.00113561
0.00113513
0.00113409
0.0011334
0.00113328
0.00113333
0.00113303
0.00113316
0.00113441
0.00113515
0.00113648
0.00113656
0.00113793
0.00113843
0.0011398
0.00114117
0.0011409
0.00114119
0.00114115
0.00114166
0.00114183
0.00114227
0.00114617
0.00115032
0.00115104
0.00114952
0.0011476
0.00114609
0.001145
0.00114407
0.00114345
0.00114303
0.0011425
0.00114165
0.00114045
0.00113906
0.00113807
0.00113736
0.00113719
0.00113759
0.00113681
0.00113747
0.00113716
0.00113673
0.00113707
0.00113725
0.00113737
0.00113769
0.00113762
0.00113767
0.00113767
0.00113756
0.00113732
0.00113752
0.00113738
0.0011374
0.00113727
0.00113613
0.00113722
0.00113725
0.00113889
0.00113975
0.00114017
0.00113944
0.0011407
0.00114262
0.00114361
0.00114448
0.00114595
0.0011465
0.00114777
0.00114727
0.00114847
0.00115005
0.00115015
0.001149
0.00114747
0.00114598
0.00114487
0.00114418
0.00114356
0.00114314
0.00114203
0.00114053
0.00113945
0.00113856
0.00113794
0.00113757
0.00113751
0.00113776
0.00113734
0.00113739
0.00113762
0.001138
0.0011384
0.0011384
0.00113806
0.00113786
0.00113759
0.00113718
0.0011368
0.00113644
0.00113609
0.00113586
0.00113573
0.00113566
0.00113606
0.00113634
0.00113746
0.00113784
0.00113914
0.00114047
0.00114079
0.00114161
0.00114323
0.00114446
0.0011445
0.00114507
0.00114567
0.00114601
0.00114599
0.001147
0.00114765
0.00114674
0.00114589
0.00114498
0.00114407
0.00114317
0.00114252
0.00114224
0.00114233
0.00114247
0.00114216
0.00114134
0.00114035
0.0011394
0.00113848
0.0011378
0.00113725
0.0011366
0.00113525
0.0011345
0.001134
0.00113362
0.0011334
0.00113337
0.00113356
0.00113358
0.00113353
0.00113358
0.0011337
0.00113374
0.00113375
0.00113416
0.00113505
0.00113559
0.00113554
0.00113463
0.00113491
0.0011354
0.0011359
0.0011366
0.00113674
0.00113743
0.00113841
0.00113944
0.00114044
0.00114119
0.00114211
0.0011435
0.0011445
0.00114658
0.00114067
0.00114146
0.0011417
0.00114151
0.00114092
0.00114007
0.00113908
0.00113857
0.00113878
0.00113923
0.00113896
0.00113768
0.00113596
0.00113457
0.00113353
0.00113286
0.00113247
0.00113244
0.00113252
0.00113233
0.0011322
0.00113237
0.00113264
0.00113268
0.00113267
0.00113241
0.00113174
0.0011308
0.00112984
0.00112925
0.00112902
0.00112887
0.00112938
0.00113008
0.00113074
0.00113127
0.00113174
0.0011325
0.00113324
0.00113405
0.00113466
0.00113538
0.00113652
0.00113787
0.00113899
0.0011398
0.0011404
0.00114098
0.0011411
0.00114085
0.00114349
0.00114196
0.00113977
0.00113776
0.0011367
0.00113601
0.00113624
0.00113665
0.00113766
0.00113821
0.00113785
0.00113687
0.0011359
0.00113522
0.00113469
0.00113406
0.00113324
0.00113233
0.00113133
0.00113067
0.00113026
0.00113002
0.00113029
0.00113074
0.00113115
0.00113107
0.0011309
0.00113073
0.00113084
0.00113098
0.00113115
0.00113137
0.00113203
0.00113287
0.00113397
0.00113469
0.00113502
0.00113528
0.00113569
0.00113615
0.00113666
0.00113695
0.00113702
0.00113693
0.00113712
0.00113783
0.00113842
0.00113896
0.00113999
0.00114177
0.0011394
0.00113945
0.0011384
0.0011386
0.00113692
0.00113651
0.00113583
0.00114016
0.00114329
0.00114426
0.00114288
0.00114042
0.0011383
0.00113737
0.00113694
0.00113649
0.00113562
0.00113508
0.0011349
0.0011346
0.00113434
0.00113414
0.00113407
0.00113419
0.00113441
0.00113466
0.00113466
0.00113442
0.00113367
0.00113297
0.00113231
0.00113202
0.00113172
0.00113147
0.00113135
0.00113181
0.00113211
0.00113273
0.00113338
0.00113472
0.00113522
0.0011355
0.00113509
0.00113569
0.00113643
0.00113825
0.00113922
0.00114009
0.00114004
0.00113996
0.00113928
0.00113851
0.00113691
0.00113556
0.00113464
0.00113399
0.00113363
0.00113377
0.00113458
0.00113503
0.00113529
0.0011351
0.00113452
0.00113404
0.00113388
0.00113403
0.00113413
0.00113407
0.00113359
0.00113273
0.00113197
0.00113166
0.0011317
0.0011317
0.00113134
0.00113101
0.00113089
0.00113106
0.00113162
0.00113163
0.00113148
0.00113108
0.00113041
0.00112976
0.00112977
0.00113057
0.00113163
0.00113225
0.00113244
0.00113245
0.00113262
0.00113282
0.00113272
0.00113315
0.00113387
0.00113494
0.00113567
0.0011362
0.00113661
0.00113779
0.00113478
0.00113468
0.00113418
0.00113359
0.00113314
0.0011331
0.00113323
0.00113353
0.00113421
0.00113468
0.00113484
0.00113416
0.00113315
0.0011327
0.00113194
0.00113083
0.00113
0.00112913
0.00112819
0.00112779
0.00112782
0.00112797
0.00112776
0.00112709
0.00112638
0.00112634
0.00112717
0.00112789
0.00112784
0.00112702
0.00112597
0.00112569
0.00112588
0.00112621
0.00112675
0.00112703
0.00112743
0.00112785
0.00112804
0.00112819
0.00112893
0.00112981
0.00113047
0.00113091
0.0011311
0.00113159
0.00113217
0.00113261
0.00113305
0.00113385
0.00115871
0.0011586
0.00115818
0.0011578
0.00115711
0.00115629
0.00115539
0.00115477
0.00115394
0.00115302
0.00115199
0.00115111
0.00115038
0.00114962
0.00114911
0.00114812
0.00114767
0.00114765
0.00114748
0.00114719
0.00114672
0.00114656
0.00114667
0.0011463
0.00114571
0.00114563
0.00114525
0.00114507
0.00114497
0.0011449
0.00114554
0.00114572
0.00114599
0.00114612
0.00114603
0.0011459
0.00114614
0.00114673
0.0011477
0.00114848
0.00114868
0.00114988
0.00115158
0.00115299
0.00115373
0.00115444
0.00115512
0.00115624
0.00115697
0.0011579
0.00115851
0.00115842
0.00115796
0.00115749
0.00115675
0.00115591
0.00115501
0.00115442
0.00115365
0.00115283
0.00115187
0.00115098
0.00115016
0.00114936
0.00114888
0.00114797
0.00114753
0.00114748
0.00114732
0.00114706
0.0011466
0.00114642
0.00114654
0.00114622
0.00114573
0.00114572
0.00114531
0.00114503
0.00114482
0.0011447
0.00114525
0.00114533
0.00114557
0.00114575
0.00114576
0.00114578
0.00114616
0.0011468
0.00114768
0.00114833
0.00114844
0.00114957
0.00115128
0.00115267
0.00115336
0.00115406
0.00115476
0.00115592
0.00115671
0.0011577
0.00115838
0.00115832
0.00115789
0.00115739
0.00115664
0.00115587
0.00115506
0.00115456
0.00115378
0.00115282
0.00115172
0.00115081
0.00115006
0.00114936
0.00114892
0.00114801
0.00114757
0.00114744
0.00114717
0.00114687
0.00114636
0.00114617
0.00114625
0.00114591
0.0011455
0.00114562
0.00114534
0.00114511
0.00114478
0.00114464
0.00114514
0.00114506
0.00114528
0.00114553
0.00114551
0.00114539
0.00114568
0.00114642
0.00114734
0.00114799
0.00114823
0.00114958
0.00115134
0.00115264
0.0011532
0.00115382
0.00115464
0.00115599
0.00115682
0.00115768
0.00115773
0.00115784
0.00115757
0.00115713
0.00115641
0.00115567
0.00115478
0.00115419
0.00115336
0.00115228
0.00115117
0.00115029
0.00114956
0.00114895
0.00114853
0.00114765
0.00114739
0.00114721
0.00114687
0.00114658
0.00114602
0.00114576
0.00114571
0.0011453
0.00114501
0.00114523
0.00114499
0.00114477
0.00114443
0.00114448
0.00114511
0.00114484
0.00114491
0.00114518
0.00114514
0.00114487
0.00114508
0.00114608
0.00114708
0.0011475
0.0011477
0.00114934
0.00115128
0.00115242
0.00115264
0.00115303
0.00115385
0.00115526
0.00115612
0.00115693
0.00115691
0.00115716
0.00115703
0.00115661
0.00115599
0.0011554
0.00115452
0.0011539
0.00115306
0.00115185
0.00115045
0.00114953
0.00114874
0.00114822
0.00114768
0.00114668
0.00114653
0.00114643
0.00114619
0.0011461
0.00114569
0.00114571
0.0011456
0.00114501
0.00114482
0.00114513
0.00114483
0.00114454
0.00114395
0.00114426
0.00114503
0.00114441
0.0011443
0.00114474
0.0011447
0.00114437
0.00114441
0.00114544
0.00114639
0.00114639
0.00114665
0.00114868
0.00115085
0.00115183
0.00115183
0.00115199
0.00115275
0.00115433
0.00115536
0.00115623
0.00115609
0.00115662
0.00115656
0.00115601
0.00115521
0.00115456
0.00115373
0.00115315
0.0011524
0.00115103
0.00114957
0.00114873
0.00114813
0.00114785
0.00114732
0.00114629
0.00114622
0.00114599
0.00114564
0.0011456
0.00114531
0.00114558
0.00114545
0.00114463
0.00114454
0.0011448
0.00114442
0.00114403
0.00114332
0.00114363
0.00114453
0.00114364
0.00114333
0.00114392
0.00114417
0.00114409
0.00114414
0.00114532
0.00114622
0.00114584
0.00114607
0.00114837
0.00115064
0.00115136
0.001151
0.00115094
0.00115172
0.00115343
0.00115457
0.00115536
0.00115504
0.00115634
0.00115667
0.0011561
0.00115514
0.00115435
0.00115334
0.00115263
0.00115176
0.00115023
0.00114872
0.00114788
0.00114728
0.00114701
0.00114636
0.00114536
0.00114542
0.00114516
0.00114489
0.00114484
0.00114449
0.00114506
0.00114493
0.00114395
0.001144
0.00114423
0.00114365
0.00114343
0.00114293
0.00114343
0.00114408
0.00114296
0.00114245
0.0011427
0.00114307
0.00114339
0.00114387
0.00114533
0.00114609
0.00114506
0.00114536
0.00114794
0.00115036
0.00115105
0.00115091
0.00115107
0.00115171
0.00115302
0.00115373
0.00115412
0.00115324
0.00115535
0.0011559
0.00115523
0.00115426
0.00115324
0.00115217
0.00115157
0.00115073
0.00114924
0.00114771
0.00114682
0.00114606
0.00114573
0.001145
0.00114426
0.00114443
0.00114439
0.00114401
0.00114385
0.00114354
0.00114412
0.00114413
0.00114312
0.00114297
0.0011428
0.00114198
0.00114182
0.00114164
0.001142
0.00114231
0.00114152
0.00114103
0.00114122
0.00114201
0.00114276
0.00114353
0.00114519
0.00114574
0.00114455
0.00114518
0.00114758
0.00114924
0.0011496
0.00114979
0.00115066
0.00115164
0.00115268
0.00115291
0.00115225
0.00115137
0.00115382
0.00115428
0.0011536
0.00115254
0.00115146
0.00115052
0.00114991
0.00114912
0.00114773
0.00114631
0.00114557
0.00114483
0.00114446
0.00114353
0.00114285
0.00114299
0.00114277
0.00114216
0.00114155
0.00114102
0.00114158
0.00114212
0.00114177
0.00114171
0.00114137
0.0011405
0.00114032
0.0011403
0.0011405
0.00114069
0.00114021
0.00113965
0.00113977
0.00114076
0.00114154
0.00114239
0.00114386
0.00114443
0.00114412
0.00114532
0.00114668
0.0011474
0.00114724
0.0011477
0.00114936
0.00115123
0.0011526
0.00115275
0.00115132
0.00115097
0.00115422
0.00115421
0.00115326
0.00115201
0.00115058
0.00114933
0.00114829
0.0011472
0.00114558
0.0011441
0.00114351
0.00114333
0.00114301
0.00114175
0.00114129
0.00114115
0.00114081
0.00114013
0.00113916
0.0011384
0.00113888
0.00113969
0.00113967
0.00113965
0.00113945
0.00113935
0.00113931
0.00113929
0.00113951
0.00113961
0.00113939
0.0011389
0.00113913
0.0011403
0.00114085
0.00114133
0.00114231
0.00114258
0.00114216
0.00114342
0.0011448
0.00114554
0.0011457
0.00114594
0.00114682
0.00114798
0.00115027
0.00115078
0.00114903
0.00114534
0.0011524
0.00115281
0.00115166
0.00114998
0.00114834
0.00114704
0.00114594
0.00114493
0.00114344
0.00114222
0.00114185
0.00114212
0.00114158
0.00113996
0.00113996
0.00113992
0.00113967
0.00113881
0.00113771
0.00113701
0.00113748
0.00113824
0.00113841
0.00113831
0.00113814
0.00113872
0.00113872
0.00113845
0.00113856
0.00113842
0.00113793
0.00113745
0.00113769
0.00113821
0.00113816
0.00113887
0.00113981
0.0011394
0.00113893
0.00114054
0.00114256
0.00114391
0.00114423
0.00114393
0.001143
0.00114248
0.00114458
0.00114741
0.00114352
0.00114554
0.00114965
0.00115019
0.00114886
0.0011469
0.00114521
0.00114413
0.00114347
0.00114284
0.00114199
0.0011416
0.00114161
0.00114168
0.0011409
0.00113943
0.00113936
0.00113914
0.00113868
0.00113789
0.00113692
0.00113648
0.00113694
0.00113741
0.00113732
0.00113725
0.00113713
0.00113755
0.0011375
0.00113742
0.00113749
0.00113658
0.00113545
0.0011351
0.00113531
0.00113523
0.00113469
0.00113536
0.00113651
0.00113589
0.00113497
0.00113713
0.00113999
0.00114144
0.00114152
0.0011413
0.00114102
0.00114098
0.00114317
0.00114451
0.00114366
0.0011452
0.00114907
0.00114957
0.00114802
0.00114581
0.00114387
0.00114255
0.0011416
0.00114092
0.00114053
0.00114062
0.00114072
0.00114051
0.0011398
0.00113868
0.00113904
0.00113913
0.00113892
0.00113814
0.00113742
0.00113692
0.00113712
0.00113734
0.00113719
0.00113688
0.00113636
0.00113667
0.00113643
0.0011361
0.00113593
0.00113516
0.00113415
0.0011338
0.00113373
0.00113334
0.00113281
0.00113401
0.0011361
0.0011366
0.0011353
0.0011362
0.00113838
0.00113978
0.00113933
0.00113901
0.00113957
0.0011411
0.00114324
0.00114602
0.00114503
0.00114396
0.00114713
0.00114808
0.00114709
0.00114538
0.0011437
0.00114239
0.00114138
0.00114073
0.00114051
0.00114042
0.00114
0.00113945
0.00113878
0.00113803
0.00113837
0.00113867
0.0011387
0.00113837
0.00113792
0.00113757
0.00113763
0.00113764
0.00113735
0.00113701
0.00113637
0.00113666
0.00113671
0.00113625
0.0011355
0.00113486
0.0011345
0.00113451
0.00113415
0.00113318
0.00113263
0.00113371
0.00113591
0.00113733
0.00113667
0.00113671
0.0011379
0.00113914
0.00113925
0.00113928
0.00114009
0.00114125
0.00114288
0.00114422
0.00114362
0.00114359
0.00114505
0.00114621
0.00114605
0.00114502
0.00114376
0.00114271
0.00114192
0.00114147
0.00114123
0.001141
0.00114036
0.0011396
0.00113914
0.00113841
0.00113859
0.00113868
0.00113872
0.00113842
0.00113808
0.0011377
0.00113749
0.00113745
0.00113707
0.00113645
0.00113582
0.00113595
0.00113614
0.00113567
0.00113486
0.00113463
0.00113515
0.00113587
0.00113581
0.00113495
0.0011344
0.00113494
0.00113626
0.00113731
0.00113645
0.00113619
0.00113669
0.00113783
0.00113885
0.00113993
0.00114129
0.00114217
0.00114287
0.00114401
0.00114415
0.00114254
0.0011432
0.00114435
0.00114469
0.00114408
0.00114298
0.00114185
0.00114099
0.00114052
0.00114026
0.00113974
0.00113904
0.00113851
0.00113831
0.00113804
0.00113785
0.00113765
0.00113746
0.00113722
0.00113719
0.00113708
0.00113698
0.00113721
0.00113746
0.0011372
0.00113605
0.00113569
0.0011356
0.00113493
0.00113384
0.00113382
0.00113398
0.00113431
0.00113446
0.00113436
0.00113446
0.00113521
0.00113619
0.00113695
0.00113693
0.00113702
0.00113766
0.00113901
0.00114035
0.00114175
0.00114322
0.00114377
0.00114412
0.0011443
0.0011437
0.00114474
0.00114448
0.00114426
0.00114402
0.00114321
0.00114196
0.00114084
0.00114
0.00113927
0.00113845
0.00113772
0.0011375
0.00113787
0.00113816
0.00113822
0.00113808
0.00113797
0.00113771
0.00113694
0.00113707
0.0011369
0.00113612
0.0011357
0.00113565
0.0011352
0.00113415
0.00113336
0.00113292
0.00113256
0.00113215
0.00113192
0.00113194
0.00113235
0.0011326
0.00113281
0.0011333
0.00113415
0.00113525
0.00113626
0.00113667
0.00113707
0.00113763
0.00113858
0.00113974
0.00114086
0.00114216
0.00114271
0.00114321
0.00114358
0.00114391
0.00114442
0.00114545
0.0011459
0.00114583
0.00114507
0.00114379
0.00114258
0.00114157
0.00114047
0.00113939
0.00113845
0.0011378
0.00113761
0.00113726
0.00113678
0.00113658
0.00113654
0.00113643
0.00113608
0.00113563
0.00113508
0.00113443
0.00113417
0.00113416
0.00113412
0.00113338
0.00113265
0.0011321
0.00113177
0.00113137
0.00113117
0.00113114
0.0011313
0.00113148
0.0011321
0.0011329
0.00113348
0.00113455
0.00113577
0.00113632
0.00113626
0.00113649
0.00113775
0.00113977
0.0011413
0.00114241
0.00114335
0.00114394
0.00114464
0.00114465
0.00114586
0.001146
0.00114523
0.00114418
0.001143
0.0011417
0.00114058
0.0011398
0.00113901
0.00113824
0.00113752
0.00113695
0.00113651
0.00113605
0.00113545
0.00113517
0.00113515
0.00113528
0.00113509
0.00113433
0.00113357
0.00113296
0.00113274
0.00113257
0.00113229
0.0011319
0.00113152
0.00113102
0.00113063
0.00113039
0.00113014
0.00112961
0.00112934
0.00112992
0.00113128
0.00113282
0.00113386
0.00113492
0.00113573
0.00113596
0.00113612
0.001137
0.00113854
0.0011399
0.00114058
0.00114109
0.00114201
0.00114292
0.00114359
0.00114464
0.00114594
0.00114592
0.00114463
0.00114325
0.00114221
0.00114151
0.00114112
0.00114078
0.0011401
0.00113901
0.00113788
0.00113702
0.00113644
0.001136
0.00113562
0.00113564
0.00113603
0.00113653
0.00113686
0.00113663
0.00113628
0.00113559
0.00113453
0.00113385
0.0011339
0.00113406
0.00113407
0.00113389
0.00113336
0.00113246
0.00113171
0.00113141
0.00113165
0.00113208
0.00113265
0.00113368
0.00113471
0.00113587
0.00113707
0.00113787
0.00113837
0.00113908
0.00114003
0.00114079
0.00114115
0.00114135
0.00114198
0.0011428
0.00114365
0.00114444
0.00114822
0.00114871
0.00114739
0.00114579
0.00114446
0.00114351
0.00114305
0.0011429
0.00114224
0.00114107
0.00113997
0.00113938
0.00113861
0.00113754
0.00113689
0.00113713
0.00113771
0.00113802
0.00113791
0.00113741
0.00113677
0.00113607
0.00113544
0.00113506
0.00113472
0.0011343
0.00113393
0.00113355
0.00113304
0.00113262
0.00113232
0.0011323
0.00113273
0.00113354
0.00113445
0.00113551
0.00113625
0.00113723
0.00113814
0.00113899
0.00113959
0.00114037
0.00114109
0.00114181
0.00114255
0.00114318
0.00114378
0.00114488
0.00114576
0.00114649
0.00114434
0.00114434
0.00114309
0.00114119
0.00113933
0.00113849
0.00113881
0.00113887
0.00113811
0.00113702
0.00113601
0.00113518
0.00113446
0.00113394
0.00113374
0.00113383
0.00113401
0.00113397
0.00113378
0.00113315
0.00113256
0.00113207
0.00113159
0.00113117
0.00113094
0.00113066
0.00113025
0.00112991
0.00112961
0.00112922
0.00112881
0.00112863
0.00112885
0.00112927
0.00113011
0.00113145
0.00113241
0.00113324
0.00113409
0.00113473
0.00113524
0.0011361
0.001137
0.0011375
0.00113772
0.00113772
0.00113848
0.00114035
0.00114184
0.00114313
0.00114571
0.00114587
0.00114486
0.00114339
0.00114216
0.00114139
0.00114093
0.00114057
0.00114001
0.00113931
0.00113861
0.00113793
0.00113733
0.00113666
0.00113601
0.00113551
0.00113515
0.0011351
0.00113544
0.00113522
0.00113483
0.00113451
0.00113431
0.00113412
0.00113401
0.00113391
0.00113371
0.00113336
0.00113294
0.00113224
0.00113147
0.001131
0.00113106
0.00113114
0.00113124
0.00113159
0.00113212
0.00113331
0.00113477
0.00113587
0.00113637
0.00113673
0.00113748
0.00113823
0.00113927
0.00114053
0.00114168
0.00114277
0.00114355
0.00114482
0.00114712
0.00114695
0.00114581
0.00114435
0.00114306
0.00114178
0.00114082
0.00113979
0.00113924
0.00113932
0.00113929
0.0011389
0.00113834
0.00113772
0.00113726
0.00113703
0.00113687
0.00113685
0.00113697
0.00113647
0.00113582
0.0011353
0.001135
0.00113486
0.00113468
0.00113441