/*--------------------------------*- C++ -*----------------------------------*\
| =========                 |                                                 |
| \\      /  F ield         | OpenFOAM: The Open Source CFD Toolbox           |
|  \\    /   O peration     | Version:  2.3.0                                 |
|   \\  /    A nd           | Web:      www.OpenFOAM.org                      |
|    \\/     M anipulation  |                                                 |
\*---------------------------------------------------------------------------*/
FoamFile
{
    version     2.0;
    format      ascii;
    class       volScalarField;
    location    "300";
    object      pPrime2Mean;
}
// * * * * * * * * * * * * * * * * * * * * * * * * * * * * * * * * * * * * * //

dimensions      [0 4 -4 0 0 0 0];

internalField   nonuniform List<scalar> 
90000
(
5.83249e-05
5.83359e-05
5.83422e-05
5.82956e-05
5.8271e-05
5.82761e-05
5.83207e-05
5.83829e-05
5.84359e-05
5.85336e-05
5.86614e-05
5.87696e-05
5.88935e-05
5.88711e-05
5.77962e-05
5.80561e-05
5.81811e-05
5.82234e-05
5.82305e-05
5.82426e-05
5.82936e-05
5.84027e-05
5.85721e-05
5.87695e-05
5.89561e-05
5.78248e-05
5.79576e-05
5.80447e-05
5.81035e-05
5.81634e-05
5.82272e-05
5.83416e-05
5.84455e-05
5.85121e-05
5.85832e-05
5.86777e-05
5.87941e-05
5.89521e-05
5.90687e-05
5.78081e-05
5.80252e-05
5.82876e-05
5.85407e-05
5.87393e-05
5.89052e-05
5.90666e-05
5.92125e-05
5.93908e-05
5.9577e-05
5.96752e-05
5.83134e-05
5.83344e-05
5.8341e-05
5.82941e-05
5.82694e-05
5.82753e-05
5.83208e-05
5.83833e-05
5.84353e-05
5.85321e-05
5.86591e-05
5.87651e-05
5.88901e-05
5.88801e-05
5.7781e-05
5.8056e-05
5.81814e-05
5.82242e-05
5.82314e-05
5.82421e-05
5.82941e-05
5.84052e-05
5.85715e-05
5.87674e-05
5.89701e-05
5.78107e-05
5.7958e-05
5.80427e-05
5.80999e-05
5.81609e-05
5.82246e-05
5.83379e-05
5.84427e-05
5.85102e-05
5.8582e-05
5.8677e-05
5.87939e-05
5.89524e-05
5.90847e-05
5.77962e-05
5.80286e-05
5.82942e-05
5.85409e-05
5.87392e-05
5.89062e-05
5.90669e-05
5.92115e-05
5.93881e-05
5.9569e-05
5.96907e-05
5.82897e-05
5.83315e-05
5.83391e-05
5.82905e-05
5.82654e-05
5.82735e-05
5.83204e-05
5.83839e-05
5.84389e-05
5.85369e-05
5.86653e-05
5.87734e-05
5.88951e-05
5.8898e-05
5.77682e-05
5.80552e-05
5.8182e-05
5.82234e-05
5.82276e-05
5.824e-05
5.82921e-05
5.83991e-05
5.85673e-05
5.87636e-05
5.89853e-05
5.77968e-05
5.79567e-05
5.80438e-05
5.8106e-05
5.81697e-05
5.82348e-05
5.83421e-05
5.84419e-05
5.85079e-05
5.858e-05
5.86751e-05
5.87911e-05
5.89467e-05
5.90949e-05
5.77816e-05
5.8028e-05
5.82934e-05
5.85368e-05
5.87375e-05
5.89021e-05
5.90609e-05
5.92058e-05
5.93857e-05
5.95687e-05
5.97055e-05
5.82767e-05
5.83331e-05
5.83409e-05
5.82904e-05
5.82636e-05
5.82731e-05
5.83198e-05
5.83806e-05
5.84302e-05
5.85298e-05
5.86567e-05
5.87616e-05
5.88825e-05
5.8905e-05
5.77551e-05
5.80506e-05
5.81817e-05
5.82248e-05
5.82271e-05
5.82406e-05
5.83002e-05
5.84117e-05
5.85754e-05
5.87621e-05
5.90046e-05
5.7787e-05
5.79548e-05
5.80407e-05
5.80943e-05
5.81544e-05
5.8231e-05
5.83339e-05
5.84326e-05
5.85017e-05
5.85772e-05
5.86706e-05
5.87881e-05
5.89463e-05
5.91119e-05
5.7781e-05
5.80386e-05
5.83027e-05
5.85391e-05
5.87403e-05
5.89047e-05
5.90634e-05
5.92049e-05
5.93799e-05
5.95482e-05
5.97152e-05
5.82708e-05
5.83398e-05
5.83321e-05
5.82776e-05
5.82559e-05
5.82674e-05
5.83153e-05
5.83751e-05
5.84346e-05
5.85384e-05
5.86802e-05
5.8794e-05
5.89044e-05
5.89376e-05
5.77522e-05
5.80496e-05
5.8182e-05
5.82202e-05
5.82157e-05
5.82259e-05
5.8287e-05
5.83944e-05
5.85593e-05
5.8746e-05
5.9005e-05
5.77804e-05
5.7956e-05
5.80493e-05
5.81127e-05
5.81834e-05
5.82549e-05
5.83459e-05
5.84305e-05
5.84975e-05
5.85773e-05
5.86698e-05
5.87906e-05
5.89381e-05
5.91195e-05
5.77744e-05
5.8036e-05
5.82919e-05
5.85318e-05
5.87331e-05
5.88891e-05
5.90489e-05
5.9191e-05
5.93764e-05
5.95332e-05
5.97225e-05
5.82331e-05
5.83493e-05
5.83544e-05
5.82986e-05
5.82631e-05
5.82697e-05
5.83118e-05
5.8363e-05
5.84114e-05
5.85146e-05
5.8644e-05
5.87572e-05
5.88743e-05
5.8923e-05
5.77383e-05
5.8041e-05
5.81746e-05
5.82182e-05
5.82188e-05
5.82363e-05
5.83024e-05
5.84096e-05
5.85673e-05
5.87394e-05
5.90149e-05
5.77778e-05
5.79653e-05
5.80529e-05
5.80962e-05
5.81539e-05
5.82473e-05
5.83351e-05
5.84175e-05
5.84901e-05
5.85626e-05
5.86448e-05
5.87702e-05
5.89247e-05
5.91368e-05
5.77857e-05
5.80507e-05
5.83089e-05
5.8553e-05
5.87619e-05
5.89118e-05
5.90609e-05
5.92029e-05
5.93657e-05
5.95072e-05
5.96903e-05
5.82813e-05
5.83638e-05
5.83332e-05
5.82693e-05
5.82336e-05
5.82454e-05
5.82951e-05
5.83538e-05
5.84211e-05
5.85366e-05
5.86826e-05
5.87952e-05
5.88941e-05
5.89389e-05
5.77434e-05
5.80473e-05
5.81921e-05
5.82355e-05
5.82051e-05
5.8208e-05
5.82813e-05
5.83914e-05
5.85481e-05
5.87162e-05
5.90099e-05
5.77747e-05
5.79361e-05
5.80377e-05
5.81147e-05
5.81889e-05
5.82728e-05
5.83527e-05
5.84298e-05
5.85189e-05
5.86042e-05
5.86776e-05
5.87867e-05
5.89218e-05
5.91174e-05
5.77659e-05
5.80423e-05
5.8294e-05
5.85333e-05
5.87313e-05
5.88783e-05
5.90338e-05
5.91752e-05
5.93523e-05
5.94823e-05
5.97125e-05
5.82164e-05
5.83421e-05
5.8334e-05
5.82689e-05
5.82271e-05
5.82395e-05
5.82941e-05
5.83601e-05
5.84081e-05
5.85056e-05
5.86356e-05
5.87643e-05
5.88721e-05
5.8942e-05
5.77573e-05
5.80431e-05
5.81651e-05
5.8207e-05
5.82088e-05
5.823e-05
5.83008e-05
5.83901e-05
5.85367e-05
5.87134e-05
5.90367e-05
5.78199e-05
5.79857e-05
5.80538e-05
5.80943e-05
5.81394e-05
5.82311e-05
5.83351e-05
5.84187e-05
5.85051e-05
5.85708e-05
5.86346e-05
5.87431e-05
5.88882e-05
5.91107e-05
5.77913e-05
5.80612e-05
5.83062e-05
5.85333e-05
5.87386e-05
5.88788e-05
5.90312e-05
5.91804e-05
5.93593e-05
5.94687e-05
5.96564e-05
5.82469e-05
5.83762e-05
5.83422e-05
5.82739e-05
5.82376e-05
5.82396e-05
5.82669e-05
5.83299e-05
5.83996e-05
5.85299e-05
5.8677e-05
5.87819e-05
5.88579e-05
5.89222e-05
5.77779e-05
5.80918e-05
5.82286e-05
5.82573e-05
5.82071e-05
5.81961e-05
5.82498e-05
5.83546e-05
5.85035e-05
5.86776e-05
5.90024e-05
5.77887e-05
5.79382e-05
5.80269e-05
5.8082e-05
5.8143e-05
5.82582e-05
5.83529e-05
5.84296e-05
5.85018e-05
5.85614e-05
5.86155e-05
5.87284e-05
5.8875e-05
5.90988e-05
5.77875e-05
5.80571e-05
5.82996e-05
5.85303e-05
5.87363e-05
5.88865e-05
5.90422e-05
5.91625e-05
5.93338e-05
5.94271e-05
5.96476e-05
5.82349e-05
5.83651e-05
5.83141e-05
5.82336e-05
5.82143e-05
5.82295e-05
5.82718e-05
5.83495e-05
5.84164e-05
5.85293e-05
5.86385e-05
5.8743e-05
5.88275e-05
5.8874e-05
5.77675e-05
5.80967e-05
5.82205e-05
5.82157e-05
5.81731e-05
5.81688e-05
5.82541e-05
5.83578e-05
5.84958e-05
5.86667e-05
5.89894e-05
5.77972e-05
5.79546e-05
5.80468e-05
5.81115e-05
5.81468e-05
5.82428e-05
5.8342e-05
5.84297e-05
5.84962e-05
5.85609e-05
5.86213e-05
5.87218e-05
5.88636e-05
5.90799e-05
5.77948e-05
5.80805e-05
5.83322e-05
5.85165e-05
5.86977e-05
5.88558e-05
5.90238e-05
5.91525e-05
5.93225e-05
5.94182e-05
5.9617e-05
5.82207e-05
5.83481e-05
5.83023e-05
5.82121e-05
5.81745e-05
5.8202e-05
5.82632e-05
5.83394e-05
5.83964e-05
5.84952e-05
5.86206e-05
5.87508e-05
5.88252e-05
5.88536e-05
5.77708e-05
5.81144e-05
5.82285e-05
5.82292e-05
5.81708e-05
5.81758e-05
5.82599e-05
5.83354e-05
5.84594e-05
5.86513e-05
5.89728e-05
5.78378e-05
5.80128e-05
5.80959e-05
5.81463e-05
5.81668e-05
5.82469e-05
5.83665e-05
5.84534e-05
5.84637e-05
5.84768e-05
5.85568e-05
5.86812e-05
5.8824e-05
5.90371e-05
5.78189e-05
5.81008e-05
5.83315e-05
5.85041e-05
5.86835e-05
5.88287e-05
5.89959e-05
5.91671e-05
5.93555e-05
5.94085e-05
5.95736e-05
5.82691e-05
5.83789e-05
5.83136e-05
5.82226e-05
5.81847e-05
5.81994e-05
5.8212e-05
5.82775e-05
5.83712e-05
5.85266e-05
5.86695e-05
5.87497e-05
5.88012e-05
5.88465e-05
5.78219e-05
5.8199e-05
5.83382e-05
5.83066e-05
5.81909e-05
5.8169e-05
5.8228e-05
5.83177e-05
5.84588e-05
5.8645e-05
5.89016e-05
5.77497e-05
5.79578e-05
5.80626e-05
5.81544e-05
5.81696e-05
5.82475e-05
5.83612e-05
5.84422e-05
5.84407e-05
5.84697e-05
5.85364e-05
5.86897e-05
5.88475e-05
5.90525e-05
5.7836e-05
5.81228e-05
5.83489e-05
5.85207e-05
5.86945e-05
5.8838e-05
5.89792e-05
5.91062e-05
5.92771e-05
5.93856e-05
5.96279e-05
5.81831e-05
5.83363e-05
5.8311e-05
5.8231e-05
5.82193e-05
5.82784e-05
5.83196e-05
5.83661e-05
5.84205e-05
5.85338e-05
5.86203e-05
5.87019e-05
5.87885e-05
5.88721e-05
5.78067e-05
5.81144e-05
5.82227e-05
5.82338e-05
5.81275e-05
5.81356e-05
5.8203e-05
5.82965e-05
5.84266e-05
5.86002e-05
5.88914e-05
5.78201e-05
5.80391e-05
5.81544e-05
5.82316e-05
5.82047e-05
5.82909e-05
5.83839e-05
5.84526e-05
5.84502e-05
5.84741e-05
5.84779e-05
5.85779e-05
5.8712e-05
5.89714e-05
5.78273e-05
5.81533e-05
5.83833e-05
5.85443e-05
5.87003e-05
5.88687e-05
5.9058e-05
5.92198e-05
5.93691e-05
5.95008e-05
5.96035e-05
5.817e-05
5.83191e-05
5.83144e-05
5.82544e-05
5.81913e-05
5.81576e-05
5.81735e-05
5.82567e-05
5.83562e-05
5.84914e-05
5.85949e-05
5.86774e-05
5.87427e-05
5.88527e-05
5.78796e-05
5.82339e-05
5.83665e-05
5.83647e-05
5.81714e-05
5.8174e-05
5.82368e-05
5.82909e-05
5.83757e-05
5.85241e-05
5.8803e-05
5.77398e-05
5.79619e-05
5.80774e-05
5.81874e-05
5.81532e-05
5.82892e-05
5.84034e-05
5.84867e-05
5.84833e-05
5.85392e-05
5.8505e-05
5.86268e-05
5.87614e-05
5.901e-05
5.79138e-05
5.82032e-05
5.83999e-05
5.85707e-05
5.87259e-05
5.88342e-05
5.89525e-05
5.90866e-05
5.92793e-05
5.93938e-05
5.95965e-05
5.81141e-05
5.82614e-05
5.8283e-05
5.82397e-05
5.82479e-05
5.82467e-05
5.82752e-05
5.83274e-05
5.83992e-05
5.85206e-05
5.86055e-05
5.86613e-05
5.868e-05
5.87775e-05
5.78421e-05
5.81501e-05
5.82867e-05
5.83233e-05
5.80259e-05
5.80741e-05
5.81671e-05
5.82548e-05
5.83742e-05
5.85316e-05
5.88247e-05
5.78659e-05
5.80631e-05
5.81809e-05
5.83292e-05
5.82175e-05
5.83573e-05
5.84411e-05
5.85301e-05
5.84945e-05
5.85351e-05
5.83641e-05
5.84802e-05
5.86326e-05
5.88907e-05
5.78897e-05
5.81773e-05
5.83801e-05
5.85669e-05
5.873e-05
5.89065e-05
5.90568e-05
5.921e-05
5.93415e-05
5.94696e-05
5.96473e-05
5.81633e-05
5.8315e-05
5.82771e-05
5.81855e-05
5.81195e-05
5.8127e-05
5.81833e-05
5.82692e-05
5.83603e-05
5.84501e-05
5.85334e-05
5.86076e-05
5.86597e-05
5.8758e-05
5.8032e-05
5.83035e-05
5.84623e-05
5.85214e-05
5.80258e-05
5.81264e-05
5.82155e-05
5.82968e-05
5.84034e-05
5.85166e-05
5.87055e-05
5.78582e-05
5.80307e-05
5.81548e-05
5.83499e-05
5.81128e-05
5.82967e-05
5.84036e-05
5.85287e-05
5.84813e-05
5.862e-05
5.82969e-05
5.84543e-05
5.85853e-05
5.88266e-05
5.80417e-05
5.82959e-05
5.8476e-05
5.85935e-05
5.86847e-05
5.87879e-05
5.897e-05
5.91499e-05
5.93438e-05
5.94899e-05
5.96324e-05
5.80808e-05
5.82922e-05
5.83461e-05
5.82922e-05
5.82524e-05
5.82562e-05
5.82758e-05
5.83229e-05
5.84056e-05
5.84911e-05
5.85554e-05
5.86155e-05
5.86478e-05
5.86242e-05
5.81873e-05
5.83297e-05
5.84501e-05
5.86558e-05
5.78483e-05
5.80302e-05
5.81251e-05
5.82026e-05
5.83127e-05
5.84184e-05
5.84961e-05
5.80079e-05
5.80931e-05
5.82013e-05
5.8353e-05
5.82285e-05
5.83918e-05
5.85025e-05
5.86172e-05
5.84884e-05
5.87101e-05
5.81041e-05
5.83774e-05
5.85494e-05
5.86611e-05
5.81805e-05
5.82834e-05
5.84311e-05
5.85885e-05
5.87522e-05
5.88964e-05
5.90722e-05
5.92353e-05
5.93767e-05
5.95172e-05
5.96788e-05
5.81047e-05
5.83691e-05
5.84074e-05
5.82881e-05
5.81954e-05
5.8164e-05
5.81861e-05
5.82371e-05
5.83244e-05
5.84334e-05
5.85039e-05
5.85657e-05
5.85875e-05
5.85248e-05
5.82884e-05
5.83931e-05
5.85304e-05
5.88024e-05
5.77883e-05
5.80396e-05
5.81513e-05
5.82396e-05
5.83383e-05
5.84165e-05
5.84291e-05
5.81316e-05
5.81514e-05
5.8243e-05
5.83462e-05
5.83026e-05
5.83952e-05
5.85022e-05
5.86452e-05
5.85171e-05
5.88322e-05
5.80764e-05
5.83415e-05
5.8495e-05
5.85431e-05
5.83194e-05
5.83738e-05
5.84865e-05
5.86319e-05
5.87842e-05
5.89088e-05
5.90653e-05
5.92118e-05
5.93453e-05
5.94675e-05
5.96081e-05
5.79144e-05
5.83274e-05
5.83982e-05
5.82352e-05
5.81157e-05
5.80925e-05
5.81159e-05
5.82002e-05
5.83146e-05
5.84392e-05
5.85164e-05
5.85665e-05
5.85831e-05
5.85556e-05
5.84459e-05
5.85131e-05
5.86255e-05
5.89129e-05
5.77648e-05
5.80266e-05
5.81404e-05
5.82237e-05
5.83163e-05
5.83791e-05
5.83693e-05
5.82094e-05
5.82128e-05
5.82621e-05
5.83268e-05
5.83135e-05
5.8417e-05
5.85635e-05
5.874e-05
5.85441e-05
5.88469e-05
5.79879e-05
5.82806e-05
5.84553e-05
5.85094e-05
5.83908e-05
5.84216e-05
5.84899e-05
5.86194e-05
5.87248e-05
5.88515e-05
5.89991e-05
5.91851e-05
5.93162e-05
5.9485e-05
5.94811e-05
5.83617e-05
5.8699e-05
5.8569e-05
5.82532e-05
5.80964e-05
5.80369e-05
5.80524e-05
5.81664e-05
5.83371e-05
5.84646e-05
5.85028e-05
5.85419e-05
5.85687e-05
5.85348e-05
5.85172e-05
5.86093e-05
5.87253e-05
5.8886e-05
5.77267e-05
5.79769e-05
5.81075e-05
5.81903e-05
5.82613e-05
5.83141e-05
5.83204e-05
5.82509e-05
5.82989e-05
5.83873e-05
5.84521e-05
5.84509e-05
5.84294e-05
5.84869e-05
5.86319e-05
5.84388e-05
5.86896e-05
5.78894e-05
5.82307e-05
5.84435e-05
5.85043e-05
5.84201e-05
5.83828e-05
5.84754e-05
5.86473e-05
5.87946e-05
5.89228e-05
5.90788e-05
5.9206e-05
5.93912e-05
5.94423e-05
5.95889e-05
5.74541e-05
5.9034e-05
5.89655e-05
5.84671e-05
5.82022e-05
5.81217e-05
5.8086e-05
5.81194e-05
5.8228e-05
5.83261e-05
5.83958e-05
5.84473e-05
5.84894e-05
5.84689e-05
5.84726e-05
5.85675e-05
5.8762e-05
5.89291e-05
5.79325e-05
5.81877e-05
5.81896e-05
5.81839e-05
5.82524e-05
5.82979e-05
5.82843e-05
5.8232e-05
5.8265e-05
5.83434e-05
5.84258e-05
5.84765e-05
5.85117e-05
5.8603e-05
5.86413e-05
5.8361e-05
5.85367e-05
5.78868e-05
5.81976e-05
5.84237e-05
5.85089e-05
5.8523e-05
5.83774e-05
5.8427e-05
5.86753e-05
5.87932e-05
5.89531e-05
5.9169e-05
5.93145e-05
5.93721e-05
5.95076e-05
5.85814e-05
5.84005e-05
5.84516e-05
5.84727e-05
5.82763e-05
5.80931e-05
5.79424e-05
5.79005e-05
5.80472e-05
5.82465e-05
5.83563e-05
5.83929e-05
5.84252e-05
5.84606e-05
5.84768e-05
5.85266e-05
5.86658e-05
5.88223e-05
5.88982e-05
5.7854e-05
5.81014e-05
5.82131e-05
5.82605e-05
5.82608e-05
5.82858e-05
5.83292e-05
5.83412e-05
5.83459e-05
5.83518e-05
5.83385e-05
5.84068e-05
5.84111e-05
5.84794e-05
5.86484e-05
5.84302e-05
5.86623e-05
5.78303e-05
5.81775e-05
5.83627e-05
5.84775e-05
5.85143e-05
5.8564e-05
5.86739e-05
5.87835e-05
5.88752e-05
5.89713e-05
5.91038e-05
5.91486e-05
5.9287e-05
5.92782e-05
5.95413e-05
5.79833e-05
5.8544e-05
5.84903e-05
5.82551e-05
5.80754e-05
5.79942e-05
5.79876e-05
5.80436e-05
5.81697e-05
5.83275e-05
5.84712e-05
5.85557e-05
5.8564e-05
5.85623e-05
5.861e-05
5.87237e-05
5.88711e-05
5.90259e-05
5.76903e-05
5.79806e-05
5.80493e-05
5.80664e-05
5.815e-05
5.82249e-05
5.82733e-05
5.83177e-05
5.8363e-05
5.84086e-05
5.84434e-05
5.85e-05
5.85869e-05
5.87423e-05
5.88529e-05
5.8587e-05
5.8797e-05
5.78238e-05
5.81608e-05
5.82967e-05
5.83659e-05
5.84183e-05
5.84443e-05
5.85008e-05
5.86409e-05
5.87952e-05
5.89518e-05
5.91047e-05
5.9265e-05
5.93694e-05
5.95657e-05
5.94267e-05
5.8208e-05
5.8464e-05
5.83783e-05
5.81961e-05
5.8031e-05
5.79082e-05
5.78647e-05
5.79084e-05
5.80037e-05
5.81834e-05
5.83044e-05
5.83414e-05
5.83893e-05
5.84779e-05
5.85675e-05
5.87176e-05
5.88865e-05
5.91011e-05
5.76929e-05
5.79501e-05
5.81543e-05
5.83129e-05
5.83979e-05
5.84236e-05
5.84333e-05
5.84344e-05
5.84167e-05
5.8373e-05
5.83321e-05
5.83383e-05
5.84079e-05
5.85159e-05
5.86487e-05
5.84412e-05
5.87384e-05
5.77974e-05
5.81535e-05
5.83762e-05
5.8512e-05
5.85853e-05
5.86462e-05
5.87459e-05
5.88606e-05
5.89397e-05
5.89957e-05
5.90838e-05
5.91462e-05
5.92994e-05
5.9409e-05
5.9587e-05
5.83625e-05
5.83304e-05
5.81367e-05
5.79921e-05
5.78779e-05
5.78049e-05
5.77929e-05
5.78522e-05
5.80164e-05
5.82493e-05
5.84641e-05
5.86203e-05
5.87088e-05
5.87648e-05
5.88125e-05
5.89072e-05
5.9003e-05
5.91164e-05
5.75574e-05
5.777e-05
5.79092e-05
5.79769e-05
5.80363e-05
5.81242e-05
5.82295e-05
5.83104e-05
5.83667e-05
5.84106e-05
5.84501e-05
5.85021e-05
5.86039e-05
5.87584e-05
5.89358e-05
5.87375e-05
5.89542e-05
5.78102e-05
5.81118e-05
5.83055e-05
5.84163e-05
5.85081e-05
5.85633e-05
5.85542e-05
5.86276e-05
5.87587e-05
5.88805e-05
5.90402e-05
5.91785e-05
5.93939e-05
5.95502e-05
5.98074e-05
5.77806e-05
5.8004e-05
5.81156e-05
5.81344e-05
5.80579e-05
5.79397e-05
5.78071e-05
5.77357e-05
5.78782e-05
5.81745e-05
5.83531e-05
5.83689e-05
5.83466e-05
5.83693e-05
5.84573e-05
5.86071e-05
5.87603e-05
5.89897e-05
5.75842e-05
5.78496e-05
5.80531e-05
5.82275e-05
5.83593e-05
5.84554e-05
5.85222e-05
5.85328e-05
5.84824e-05
5.84122e-05
5.83237e-05
5.83472e-05
5.8462e-05
5.85667e-05
5.87223e-05
5.85193e-05
5.88203e-05
5.78331e-05
5.81683e-05
5.8417e-05
5.8592e-05
5.86923e-05
5.87137e-05
5.86977e-05
5.87925e-05
5.89571e-05
5.91205e-05
5.92788e-05
5.93865e-05
5.94763e-05
5.95349e-05
5.95601e-05
5.83077e-05
5.82344e-05
5.78922e-05
5.76372e-05
5.75279e-05
5.74332e-05
5.74337e-05
5.74361e-05
5.76922e-05
5.81093e-05
5.84013e-05
5.85258e-05
5.8579e-05
5.86284e-05
5.86967e-05
5.88001e-05
5.88998e-05
5.90546e-05
5.75303e-05
5.77546e-05
5.79441e-05
5.80891e-05
5.82142e-05
5.83289e-05
5.83912e-05
5.84307e-05
5.84538e-05
5.8445e-05
5.83979e-05
5.84643e-05
5.856e-05
5.86556e-05
5.87994e-05
5.86446e-05
5.90418e-05
5.81382e-05
5.84587e-05
5.86191e-05
5.87125e-05
5.87623e-05
5.87706e-05
5.86112e-05
5.85682e-05
5.85699e-05
5.86409e-05
5.88157e-05
5.89766e-05
5.91859e-05
5.93686e-05
5.96702e-05
5.76253e-05
5.76942e-05
5.76883e-05
5.77206e-05
5.75882e-05
5.75197e-05
5.7359e-05
5.77135e-05
5.79814e-05
5.84705e-05
5.8689e-05
5.868e-05
5.86082e-05
5.85224e-05
5.85443e-05
5.86332e-05
5.87582e-05
5.90035e-05
5.76431e-05
5.79251e-05
5.81558e-05
5.83329e-05
5.84411e-05
5.84925e-05
5.8575e-05
5.87044e-05
5.88091e-05
5.87422e-05
5.83969e-05
5.84007e-05
5.84241e-05
5.8512e-05
5.8627e-05
5.84398e-05
5.86919e-05
5.78804e-05
5.82074e-05
5.8419e-05
5.86018e-05
5.87818e-05
5.89011e-05
5.84085e-05
5.83887e-05
5.84861e-05
5.86633e-05
5.89215e-05
5.91344e-05
5.93001e-05
5.93867e-05
5.94341e-05
5.8096e-05
5.81066e-05
5.79078e-05
5.7738e-05
5.76105e-05
5.75266e-05
5.75812e-05
5.78665e-05
5.75832e-05
5.81485e-05
5.85263e-05
5.87473e-05
5.8787e-05
5.84378e-05
5.84129e-05
5.85666e-05
5.8799e-05
5.91132e-05
5.79723e-05
5.81493e-05
5.82424e-05
5.83209e-05
5.8428e-05
5.85212e-05
5.85615e-05
5.85855e-05
5.86376e-05
5.85601e-05
5.77757e-05
5.80631e-05
5.82382e-05
5.83958e-05
5.84459e-05
5.83235e-05
5.83177e-05
5.82184e-05
5.84808e-05
5.87176e-05
5.88762e-05
5.90286e-05
5.9316e-05
5.80806e-05
5.83192e-05
5.84901e-05
5.86387e-05
5.88198e-05
5.89793e-05
5.91773e-05
5.9302e-05
5.95417e-05
5.78591e-05
5.79403e-05
5.79194e-05
5.78261e-05
5.76965e-05
5.76344e-05
5.77109e-05
5.78451e-05
5.79799e-05
5.83676e-05
5.86555e-05
5.8789e-05
5.90341e-05
5.79493e-05
5.81583e-05
5.82504e-05
5.83184e-05
5.82802e-05
5.79519e-05
5.80533e-05
5.82503e-05
5.84444e-05
5.85776e-05
5.86063e-05
5.85763e-05
5.86126e-05
5.89544e-05
5.79871e-05
5.80032e-05
5.80651e-05
5.81619e-05
5.83032e-05
5.84054e-05
5.8408e-05
5.83809e-05
5.83622e-05
5.84727e-05
5.8651e-05
5.8832e-05
5.90192e-05
5.93394e-05
5.80187e-05
5.832e-05
5.84897e-05
5.85895e-05
5.87086e-05
5.88873e-05
5.91151e-05
5.92979e-05
5.93997e-05
5.82133e-05
5.83469e-05
5.83564e-05
5.83247e-05
5.83131e-05
5.83211e-05
5.83426e-05
5.84083e-05
5.85049e-05
5.863e-05
5.87478e-05
5.88731e-05
5.89212e-05
5.88141e-05
5.78193e-05
5.80401e-05
5.81311e-05
5.81688e-05
5.81735e-05
5.81817e-05
5.82486e-05
5.83762e-05
5.85466e-05
5.87418e-05
5.89995e-05
5.78152e-05
5.7999e-05
5.81088e-05
5.81701e-05
5.82043e-05
5.82684e-05
5.83292e-05
5.83895e-05
5.84574e-05
5.85431e-05
5.86402e-05
5.87521e-05
5.88831e-05
5.90938e-05
5.78215e-05
5.81045e-05
5.8355e-05
5.8581e-05
5.87839e-05
5.89454e-05
5.90834e-05
5.91888e-05
5.93347e-05
5.94701e-05
5.96339e-05
5.82045e-05
5.8344e-05
5.83527e-05
5.83192e-05
5.83111e-05
5.83172e-05
5.83331e-05
5.83931e-05
5.84887e-05
5.86191e-05
5.87448e-05
5.88741e-05
5.89163e-05
5.88e-05
5.78008e-05
5.80273e-05
5.81253e-05
5.81706e-05
5.81787e-05
5.81905e-05
5.82587e-05
5.83854e-05
5.85555e-05
5.87508e-05
5.90084e-05
5.78172e-05
5.79995e-05
5.81073e-05
5.81718e-05
5.82094e-05
5.82762e-05
5.83414e-05
5.8397e-05
5.84584e-05
5.85418e-05
5.86409e-05
5.87648e-05
5.89028e-05
5.91105e-05
5.78283e-05
5.81095e-05
5.83555e-05
5.85801e-05
5.87823e-05
5.89434e-05
5.90794e-05
5.91779e-05
5.93148e-05
5.94493e-05
5.96185e-05
5.82155e-05
5.83553e-05
5.83661e-05
5.83266e-05
5.83173e-05
5.83334e-05
5.8362e-05
5.84343e-05
5.85328e-05
5.86539e-05
5.87568e-05
5.8881e-05
5.89408e-05
5.88238e-05
5.78169e-05
5.80342e-05
5.81321e-05
5.81865e-05
5.81911e-05
5.8201e-05
5.82645e-05
5.83967e-05
5.8576e-05
5.87661e-05
5.90151e-05
5.7813e-05
5.80056e-05
5.8127e-05
5.81924e-05
5.82209e-05
5.829e-05
5.83595e-05
5.8414e-05
5.84833e-05
5.85611e-05
5.86468e-05
5.87533e-05
5.88779e-05
5.9088e-05
5.78176e-05
5.81257e-05
5.83836e-05
5.86102e-05
5.88057e-05
5.89623e-05
5.90936e-05
5.91964e-05
5.93468e-05
5.94848e-05
5.96476e-05
5.81873e-05
5.83493e-05
5.83655e-05
5.83147e-05
5.82997e-05
5.83073e-05
5.83309e-05
5.84061e-05
5.85077e-05
5.86303e-05
5.87514e-05
5.88787e-05
5.89407e-05
5.88217e-05
5.78077e-05
5.80319e-05
5.81415e-05
5.81993e-05
5.82036e-05
5.82069e-05
5.82676e-05
5.8399e-05
5.85745e-05
5.87575e-05
5.90155e-05
5.77998e-05
5.79949e-05
5.81082e-05
5.81805e-05
5.82085e-05
5.82833e-05
5.83536e-05
5.84091e-05
5.84765e-05
5.85574e-05
5.86489e-05
5.87667e-05
5.89066e-05
5.91282e-05
5.7845e-05
5.8139e-05
5.83905e-05
5.86203e-05
5.88097e-05
5.89485e-05
5.90756e-05
5.91732e-05
5.93205e-05
5.94527e-05
5.96109e-05
5.81693e-05
5.83467e-05
5.83633e-05
5.83061e-05
5.82928e-05
5.8315e-05
5.83479e-05
5.84278e-05
5.8532e-05
5.86541e-05
5.87524e-05
5.88687e-05
5.893e-05
5.88031e-05
5.77754e-05
5.79931e-05
5.81038e-05
5.81675e-05
5.81895e-05
5.81963e-05
5.82597e-05
5.8401e-05
5.85775e-05
5.87622e-05
5.90383e-05
5.78234e-05
5.80232e-05
5.81359e-05
5.81924e-05
5.82245e-05
5.82848e-05
5.83375e-05
5.84052e-05
5.84747e-05
5.85496e-05
5.8638e-05
5.87529e-05
5.88933e-05
5.91108e-05
5.7806e-05
5.81135e-05
5.83746e-05
5.8614e-05
5.88097e-05
5.89601e-05
5.90863e-05
5.91812e-05
5.93289e-05
5.94565e-05
5.96152e-05
5.8156e-05
5.83611e-05
5.83647e-05
5.82792e-05
5.82468e-05
5.82531e-05
5.8293e-05
5.83923e-05
5.85117e-05
5.86263e-05
5.87301e-05
5.88553e-05
5.89354e-05
5.88117e-05
5.78089e-05
5.80442e-05
5.8167e-05
5.82149e-05
5.82082e-05
5.82053e-05
5.82685e-05
5.83915e-05
5.85677e-05
5.8756e-05
5.90382e-05
5.78077e-05
5.80145e-05
5.81265e-05
5.81779e-05
5.8182e-05
5.82437e-05
5.83031e-05
5.83731e-05
5.8454e-05
5.85492e-05
5.86425e-05
5.8756e-05
5.89027e-05
5.91319e-05
5.783e-05
5.81319e-05
5.8399e-05
5.86225e-05
5.8795e-05
5.89137e-05
5.90343e-05
5.91495e-05
5.93263e-05
5.94596e-05
5.95912e-05
5.81342e-05
5.83997e-05
5.84015e-05
5.83073e-05
5.82742e-05
5.82922e-05
5.83274e-05
5.84122e-05
5.85237e-05
5.86285e-05
5.87292e-05
5.88533e-05
5.89299e-05
5.87868e-05
5.77722e-05
5.80114e-05
5.8144e-05
5.81919e-05
5.81924e-05
5.81906e-05
5.82435e-05
5.83707e-05
5.85459e-05
5.87422e-05
5.90425e-05
5.78182e-05
5.80314e-05
5.815e-05
5.81964e-05
5.82258e-05
5.82797e-05
5.83222e-05
5.8386e-05
5.84458e-05
5.85112e-05
5.85958e-05
5.87301e-05
5.88955e-05
5.91304e-05
5.78047e-05
5.80962e-05
5.83668e-05
5.86035e-05
5.87918e-05
5.89452e-05
5.9084e-05
5.91883e-05
5.9343e-05
5.94609e-05
5.95645e-05
5.81222e-05
5.84555e-05
5.84306e-05
5.82739e-05
5.82424e-05
5.82546e-05
5.82991e-05
5.83982e-05
5.85174e-05
5.8628e-05
5.87221e-05
5.88416e-05
5.89181e-05
5.87704e-05
5.77734e-05
5.80386e-05
5.81803e-05
5.82292e-05
5.82037e-05
5.82083e-05
5.82785e-05
5.84012e-05
5.85565e-05
5.87363e-05
5.90129e-05
5.77813e-05
5.80032e-05
5.81218e-05
5.81718e-05
5.81935e-05
5.82405e-05
5.83041e-05
5.83769e-05
5.84551e-05
5.85499e-05
5.86482e-05
5.87649e-05
5.89253e-05
5.9154e-05
5.78251e-05
5.80976e-05
5.83703e-05
5.8595e-05
5.87775e-05
5.89242e-05
5.90651e-05
5.91768e-05
5.93441e-05
5.94514e-05
5.95005e-05
5.80783e-05
5.84745e-05
5.8453e-05
5.82752e-05
5.82089e-05
5.82162e-05
5.82749e-05
5.83791e-05
5.85063e-05
5.86137e-05
5.87221e-05
5.8848e-05
5.89348e-05
5.87633e-05
5.77994e-05
5.80764e-05
5.82247e-05
5.82619e-05
5.82199e-05
5.82143e-05
5.8263e-05
5.8372e-05
5.8532e-05
5.87378e-05
5.89984e-05
5.77952e-05
5.80201e-05
5.81329e-05
5.81841e-05
5.81999e-05
5.82416e-05
5.83055e-05
5.83836e-05
5.84446e-05
5.85142e-05
5.86027e-05
5.87443e-05
5.89336e-05
5.91606e-05
5.78588e-05
5.81303e-05
5.83835e-05
5.86202e-05
5.87808e-05
5.892e-05
5.90608e-05
5.91783e-05
5.93473e-05
5.94569e-05
5.94514e-05
5.82511e-05
5.86219e-05
5.85334e-05
5.83041e-05
5.82397e-05
5.82453e-05
5.82984e-05
5.83863e-05
5.85084e-05
5.86001e-05
5.86966e-05
5.88154e-05
5.89338e-05
5.87245e-05
5.78061e-05
5.81207e-05
5.82573e-05
5.82706e-05
5.82211e-05
5.82181e-05
5.82611e-05
5.83716e-05
5.85177e-05
5.87203e-05
5.89352e-05
5.77815e-05
5.80323e-05
5.81495e-05
5.82158e-05
5.8237e-05
5.82671e-05
5.83259e-05
5.84087e-05
5.84723e-05
5.85574e-05
5.86262e-05
5.87252e-05
5.89257e-05
5.9137e-05
5.78207e-05
5.80855e-05
5.83722e-05
5.86052e-05
5.87965e-05
5.89597e-05
5.91209e-05
5.92186e-05
5.94406e-05
5.94437e-05
5.94213e-05
5.79152e-05
5.8665e-05
5.86443e-05
5.83518e-05
5.82488e-05
5.82437e-05
5.82813e-05
5.83419e-05
5.84543e-05
5.85629e-05
5.86642e-05
5.87768e-05
5.89083e-05
5.86433e-05
5.78086e-05
5.81445e-05
5.83037e-05
5.83387e-05
5.82601e-05
5.82651e-05
5.83064e-05
5.83916e-05
5.85427e-05
5.876e-05
5.88924e-05
5.78518e-05
5.80808e-05
5.81646e-05
5.81882e-05
5.81955e-05
5.82528e-05
5.83254e-05
5.83992e-05
5.84496e-05
5.85142e-05
5.85812e-05
5.87277e-05
5.89645e-05
5.91548e-05
5.79236e-05
5.81274e-05
5.83879e-05
5.86185e-05
5.88168e-05
5.89785e-05
5.91221e-05
5.91869e-05
5.94053e-05
5.95225e-05
5.9114e-05
5.81773e-05
5.8444e-05
5.8475e-05
5.82951e-05
5.8223e-05
5.82243e-05
5.82775e-05
5.83627e-05
5.84693e-05
5.85783e-05
5.87081e-05
5.8818e-05
5.89151e-05
5.86712e-05
5.78612e-05
5.81573e-05
5.82736e-05
5.82784e-05
5.82083e-05
5.82245e-05
5.82981e-05
5.83812e-05
5.85266e-05
5.87253e-05
5.88824e-05
5.7872e-05
5.80857e-05
5.81979e-05
5.82408e-05
5.82191e-05
5.82457e-05
5.83343e-05
5.84325e-05
5.84879e-05
5.85461e-05
5.85541e-05
5.86665e-05
5.88679e-05
5.90729e-05
5.78558e-05
5.81483e-05
5.84134e-05
5.86341e-05
5.88138e-05
5.89615e-05
5.9117e-05
5.92168e-05
5.94256e-05
5.93828e-05
5.93673e-05
5.81192e-05
5.85454e-05
5.85173e-05
5.83405e-05
5.826e-05
5.8244e-05
5.82782e-05
5.83468e-05
5.84554e-05
5.857e-05
5.87059e-05
5.88171e-05
5.89185e-05
5.87151e-05
5.7888e-05
5.82127e-05
5.83373e-05
5.83385e-05
5.82009e-05
5.82206e-05
5.82699e-05
5.83461e-05
5.85089e-05
5.87144e-05
5.89055e-05
5.78061e-05
5.8079e-05
5.82073e-05
5.82544e-05
5.82115e-05
5.82813e-05
5.83812e-05
5.84782e-05
5.85333e-05
5.85898e-05
5.85528e-05
5.86733e-05
5.888e-05
5.91093e-05
5.78731e-05
5.8166e-05
5.84133e-05
5.86279e-05
5.88027e-05
5.89552e-05
5.9114e-05
5.9231e-05
5.93851e-05
5.95411e-05
5.94342e-05
5.81332e-05
5.85157e-05
5.85026e-05
5.83575e-05
5.828e-05
5.82485e-05
5.82605e-05
5.83193e-05
5.8426e-05
5.85498e-05
5.86545e-05
5.8733e-05
5.88657e-05
5.87475e-05
5.78855e-05
5.82191e-05
5.83684e-05
5.83681e-05
5.8185e-05
5.82118e-05
5.82893e-05
5.83823e-05
5.85368e-05
5.87237e-05
5.89497e-05
5.78018e-05
5.80786e-05
5.82261e-05
5.83011e-05
5.82135e-05
5.83026e-05
5.83959e-05
5.85004e-05
5.85489e-05
5.86018e-05
5.84997e-05
5.86232e-05
5.88199e-05
5.90688e-05
5.78934e-05
5.82185e-05
5.84865e-05
5.87024e-05
5.8852e-05
5.89813e-05
5.91249e-05
5.92225e-05
5.93845e-05
5.94543e-05
5.94794e-05
5.82184e-05
5.84698e-05
5.84273e-05
5.83103e-05
5.82494e-05
5.8235e-05
5.8265e-05
5.83326e-05
5.84439e-05
5.85545e-05
5.86742e-05
5.877e-05
5.88915e-05
5.88723e-05
5.79825e-05
5.82993e-05
5.84328e-05
5.84431e-05
5.81358e-05
5.8183e-05
5.82509e-05
5.83329e-05
5.84819e-05
5.86506e-05
5.8849e-05
5.77906e-05
5.80628e-05
5.82275e-05
5.83278e-05
5.8159e-05
5.83226e-05
5.84793e-05
5.8621e-05
5.86764e-05
5.87205e-05
5.84641e-05
5.85808e-05
5.8772e-05
5.90212e-05
5.79049e-05
5.82067e-05
5.84317e-05
5.86022e-05
5.87609e-05
5.89117e-05
5.90971e-05
5.92195e-05
5.93761e-05
5.95208e-05
5.96377e-05
5.80897e-05
5.83731e-05
5.84357e-05
5.83748e-05
5.83176e-05
5.82889e-05
5.82852e-05
5.83208e-05
5.84049e-05
5.85353e-05
5.86313e-05
5.86771e-05
5.87517e-05
5.87664e-05
5.80261e-05
5.82699e-05
5.84241e-05
5.848e-05
5.80031e-05
5.8092e-05
5.81923e-05
5.83343e-05
5.85294e-05
5.87111e-05
5.8895e-05
5.79592e-05
5.81398e-05
5.82874e-05
5.84272e-05
5.81022e-05
5.8332e-05
5.84453e-05
5.8556e-05
5.86046e-05
5.86939e-05
5.82748e-05
5.84838e-05
5.86771e-05
5.89123e-05
5.80373e-05
5.82642e-05
5.84787e-05
5.86764e-05
5.88581e-05
5.90109e-05
5.91836e-05
5.9292e-05
5.94104e-05
5.95301e-05
5.96596e-05
5.83104e-05
5.84502e-05
5.83574e-05
5.82701e-05
5.8209e-05
5.81606e-05
5.81539e-05
5.82171e-05
5.83341e-05
5.84423e-05
5.85177e-05
5.86228e-05
5.87642e-05
5.881e-05
5.83896e-05
5.84785e-05
5.85932e-05
5.87285e-05
5.7861e-05
5.81e-05
5.8205e-05
5.82891e-05
5.84284e-05
5.85593e-05
5.85564e-05
5.7967e-05
5.80885e-05
5.82444e-05
5.8356e-05
5.81954e-05
5.83662e-05
5.85001e-05
5.86227e-05
5.86968e-05
5.89487e-05
5.81848e-05
5.85031e-05
5.86515e-05
5.87299e-05
5.81981e-05
5.83174e-05
5.84955e-05
5.86236e-05
5.87591e-05
5.89242e-05
5.9095e-05
5.91751e-05
5.93159e-05
5.94419e-05
5.96972e-05
5.80254e-05
5.82334e-05
5.83196e-05
5.83396e-05
5.83332e-05
5.83024e-05
5.82798e-05
5.82978e-05
5.83707e-05
5.84659e-05
5.85311e-05
5.8586e-05
5.86579e-05
5.86373e-05
5.83877e-05
5.83999e-05
5.85237e-05
5.87553e-05
5.7753e-05
5.80237e-05
5.81597e-05
5.8302e-05
5.84347e-05
5.84997e-05
5.84748e-05
5.81557e-05
5.82179e-05
5.83406e-05
5.83959e-05
5.82771e-05
5.8386e-05
5.85164e-05
5.86431e-05
5.86594e-05
5.8965e-05
5.801e-05
5.83448e-05
5.84748e-05
5.85264e-05
5.82817e-05
5.83239e-05
5.83795e-05
5.8513e-05
5.87652e-05
5.90191e-05
5.92241e-05
5.9321e-05
5.94172e-05
5.95394e-05
5.96365e-05
5.8269e-05
5.84262e-05
5.83754e-05
5.82666e-05
5.81787e-05
5.80891e-05
5.80714e-05
5.81486e-05
5.82604e-05
5.83755e-05
5.84713e-05
5.85697e-05
5.86635e-05
5.86499e-05
5.84905e-05
5.84889e-05
5.86068e-05
5.889e-05
5.77812e-05
5.8006e-05
5.81052e-05
5.82264e-05
5.83634e-05
5.842e-05
5.83221e-05
5.81407e-05
5.81904e-05
5.82642e-05
5.828e-05
5.82589e-05
5.83996e-05
5.84809e-05
5.85172e-05
5.85771e-05
5.89885e-05
5.80147e-05
5.83892e-05
5.85158e-05
5.85105e-05
5.83485e-05
5.83893e-05
5.84784e-05
5.86343e-05
5.88131e-05
5.89586e-05
5.9067e-05
5.91555e-05
5.93277e-05
5.94383e-05
5.96098e-05
5.81854e-05
5.83623e-05