/*--------------------------------*- C++ -*----------------------------------*\
| =========                 |                                                 |
| \\      /  F ield         | OpenFOAM: The Open Source CFD Toolbox           |
|  \\    /   O peration     | Version:  2.3.0                                 |
|   \\  /    A nd           | Web:      www.OpenFOAM.org                      |
|    \\/     M anipulation  |                                                 |
\*---------------------------------------------------------------------------*/
FoamFile
{
    version     2.0;
    format      ascii;
    class       volVectorField;
    location    "300";
    object      U;
}
// * * * * * * * * * * * * * * * * * * * * * * * * * * * * * * * * * * * * * //

dimensions      [0 1 -1 0 0 0 0];

internalField   nonuniform List<vector> 
90000
(
(0.00515083 7.83644e-06 -0.000311816)
(0.00514927 7.89797e-06 -0.000242277)
(0.00514317 7.6618e-06 -0.000178728)
(0.00512121 5.44535e-06 -0.000143042)
(0.00510033 2.72656e-06 -0.000126669)
(0.00508304 5.80231e-07 -0.000126723)
(0.00507311 -1.31347e-06 -0.000136855)
(0.00506015 -2.68185e-06 -0.000148435)
(0.0050492 -3.51407e-06 -0.000156211)
(0.00503389 -4.10445e-06 -0.000158506)
(0.00502383 -4.57509e-06 -0.000153247)
(0.00501213 -4.70617e-06 -0.000139559)
(0.00500537 -4.53248e-06 -0.000118473)
(0.00499472 -3.88095e-06 -9.45124e-05)
(0.0049877 -3.12691e-06 -7.32372e-05)
(0.00497857 -2.30123e-06 -5.64322e-05)
(0.00497304 -1.37283e-06 -4.71087e-05)
(0.00496201 -1.86581e-07 -4.69944e-05)
(0.00494983 9.66706e-07 -5.80791e-05)
(0.00493253 1.73861e-06 -8.0823e-05)
(0.00492409 1.96765e-06 -0.000110683)
(0.00492369 1.66897e-06 -0.00013989)
(0.00494215 7.50429e-07 -0.00016005)
(0.00496751 1.00092e-09 -0.000162774)
(0.00499658 -4.26286e-07 -0.000149944)
(0.00501261 -2.56045e-07 -0.000127657)
(0.00501895 1.25037e-07 -0.000107694)
(0.00501119 6.70056e-07 -9.55548e-05)
(0.00500315 1.13461e-06 -9.24596e-05)
(0.00499519 1.15058e-06 -9.72936e-05)
(0.0049998 1.00332e-06 -0.000105054)
(0.00500933 7.2431e-07 -0.000113471)
(0.00502859 8.40832e-07 -0.000120999)
(0.00504515 1.21154e-06 -0.000127891)
(0.00506194 2.03218e-06 -0.00013343)
(0.00506802 2.92757e-06 -0.000135488)
(0.00507263 3.30508e-06 -0.000135109)
(0.00507203 3.27783e-06 -0.000132853)
(0.00507829 2.52901e-06 -0.000130225)
(0.00508746 1.15928e-06 -0.000125001)
(0.00510775 -5.02907e-07 -0.000116611)
(0.0051308 -1.86128e-06 -0.000108151)
(0.00515965 -2.57685e-06 -0.000105664)
(0.00517995 -2.89639e-06 -0.000115624)
(0.00519569 -2.76419e-06 -0.000139129)
(0.00519314 -1.89863e-06 -0.000173286)
(0.00517888 -8.63161e-07 -0.000219389)
(0.00515901 1.85173e-06 -0.000278898)
(0.00515174 4.78132e-06 -0.000333493)
(0.00514793 6.8759e-06 -0.000349337)
(0.0158057 3.95114e-05 -0.000674167)
(0.0158037 4.12981e-05 -0.000556026)
(0.0157993 3.89893e-05 -0.000461098)
(0.0157662 2.89681e-05 -0.000411175)
(0.015736 1.66109e-05 -0.000392658)
(0.0156967 5.31167e-06 -0.000396628)
(0.0156647 -3.77864e-06 -0.000411451)
(0.0156152 -1.07205e-05 -0.000422816)
(0.0155698 -1.5239e-05 -0.000424152)
(0.0155101 -1.82998e-05 -0.000412879)
(0.0154627 -2.01515e-05 -0.000388007)
(0.0154071 -1.99569e-05 -0.000350583)
(0.0153661 -1.80021e-05 -0.00030517)
(0.0153174 -1.39733e-05 -0.000260279)
(0.0152844 -9.47499e-06 -0.000225434)
(0.0152471 -4.63226e-06 -0.000202866)
(0.0152256 4.3948e-07 -0.000197624)
(0.0151962 5.30085e-06 -0.000209821)
(0.0151784 9.36817e-06 -0.000240248)
(0.0151564 1.13618e-05 -0.00028469)
(0.0151588 1.10066e-05 -0.000332887)
(0.0151686 8.78576e-06 -0.000372399)
(0.0152076 4.94476e-06 -0.000392977)
(0.0152424 2.45264e-06 -0.000387185)
(0.0152821 1.56984e-06 -0.000363787)
(0.0152946 2.83233e-06 -0.000333679)
(0.0153019 4.80153e-06 -0.000314406)
(0.0152888 7.36045e-06 -0.000309608)
(0.0152894 9.28551e-06 -0.000319868)
(0.0152887 9.86692e-06 -0.000339644)
(0.0153163 1.00848e-05 -0.000361115)
(0.0153448 1.02625e-05 -0.00038036)
(0.0153939 1.1846e-05 -0.000395025)
(0.0154333 1.40985e-05 -0.000405393)
(0.0154806 1.74135e-05 -0.000410815)
(0.0155117 2.01113e-05 -0.000409321)
(0.0155516 2.04174e-05 -0.000404194)
(0.0155824 1.88858e-05 -0.000396487)
(0.015631 1.46241e-05 -0.000389468)
(0.0156741 8.77666e-06 -0.000380879)
(0.0157342 2.8876e-06 -0.000373438)
(0.015782 -1.5153e-06 -0.000372691)
(0.0158347 -3.32511e-06 -0.00038815)
(0.0158592 -3.57391e-06 -0.000426196)
(0.0158762 -2.19973e-06 -0.000485095)
(0.0158579 1.39001e-06 -0.000557509)
(0.0158343 6.54555e-06 -0.000639784)
(0.0158027 1.59648e-05 -0.000723443)
(0.015798 2.60578e-05 -0.000777379)
(0.0157942 3.42766e-05 -0.000761938)
(0.0272644 8.84625e-05 -0.000974876)
(0.0272782 8.98837e-05 -0.000833965)
(0.027295 7.97544e-05 -0.000722834)
(0.0272667 5.71435e-05 -0.000663921)
(0.027236 3.13597e-05 -0.000642584)
(0.0271741 8.0392e-06 -0.00064701)
(0.027115 -1.01221e-05 -0.00066321)
(0.0270187 -2.32304e-05 -0.00067331)
(0.0269275 -3.11329e-05 -0.000669798)
(0.0268097 -3.56888e-05 -0.000649268)
(0.0267105 -3.74341e-05 -0.000611545)
(0.0265971 -3.51179e-05 -0.000558882)
(0.0265095 -2.97079e-05 -0.000497662)
(0.0264131 -2.07521e-05 -0.00043835)
(0.0263477 -1.13638e-05 -0.000393364)
(0.0262788 -1.19359e-06 -0.000364724)
(0.0262417 8.55757e-06 -0.000358358)
(0.0261965 1.70687e-05 -0.000372976)
(0.0261771 2.37646e-05 -0.000408849)
(0.0261495 2.64383e-05 -0.000459577)
(0.0261558 2.47963e-05 -0.000513191)
(0.0261601 2.00008e-05 -0.000556178)
(0.0262002 1.27356e-05 -0.000578655)
(0.026225 8.38834e-06 -0.000573568)
(0.0262615 7.05998e-06 -0.000552362)
(0.0262643 9.8478e-06 -0.000527267)
(0.0262733 1.42825e-05 -0.000517946)
(0.0262574 2.04529e-05 -0.000526367)
(0.0262706 2.54619e-05 -0.000552984)
(0.0262765 2.85121e-05 -0.000589062)
(0.0263258 3.0985e-05 -0.000625261)
(0.0263696 3.35185e-05 -0.000656122)
(0.0264484 3.82645e-05 -0.000678977)
(0.0265142 4.36282e-05 -0.000693431)
(0.0266011 5.01882e-05 -0.000699608)
(0.0266711 5.45638e-05 -0.000695685)
(0.02676 5.39117e-05 -0.000686581)
(0.0268336 4.9279e-05 -0.000674203)
(0.0269318 3.91471e-05 -0.000663756)
(0.0270085 2.68671e-05 -0.000653294)
(0.0271064 1.5423e-05 -0.000647586)
(0.0271743 6.68457e-06 -0.000651814)
(0.02725 2.44725e-06 -0.00067679)
(0.0272809 1.10063e-06 -0.000728041)
(0.0273067 2.86162e-06 -0.00080183)
(0.0272832 9.75144e-06 -0.000888004)
(0.0272613 2.29719e-05 -0.000980336)
(0.0272263 4.20967e-05 -0.00106764)
(0.0272303 6.1779e-05 -0.00111654)
(0.0272329 7.82105e-05 -0.00108523)
(0.0394699 0.000145557 -0.0012607)
(0.0395048 0.000146012 -0.00109503)
(0.0395482 0.000126103 -0.000961552)
(0.0395277 8.92574e-05 -0.00088652)
(0.0394986 4.82439e-05 -0.000857385)
(0.0394122 1.15529e-05 -0.00086102)
(0.039324 -1.70559e-05 -0.000881675)
(0.0391763 -3.65343e-05 -0.00089716)
(0.0390353 -4.72001e-05 -0.000897326)
(0.0388547 -5.20855e-05 -0.000876709)
(0.0386988 -5.23407e-05 -0.000834042)
(0.0385243 -4.64204e-05 -0.000771671)
(0.0383864 -3.63879e-05 -0.000696918)
(0.0382399 -2.144e-05 -0.000621395)
(0.0381401 -6.32304e-06 -0.000560968)
(0.0380382 9.49642e-06 -0.000518548)
(0.0379848 2.37462e-05 -0.000501599)
(0.037921 3.58072e-05 -0.000508819)
(0.0378972 4.47458e-05 -0.000541171)
(0.0378557 4.74516e-05 -0.000591656)
(0.0378568 4.35242e-05 -0.000646551)
(0.0378429 3.48486e-05 -0.000691222)
(0.0378718 2.25607e-05 -0.000715517)
(0.0378763 1.49313e-05 -0.000711525)
(0.0379006 1.17383e-05 -0.000692016)
(0.0378865 1.52305e-05 -0.000670767)
(0.0378924 2.20149e-05 -0.000670561)
(0.0378678 3.2485e-05 -0.000692481)
(0.0378909 4.19443e-05 -0.000737535)
(0.0378988 4.94604e-05 -0.000795021)
(0.0379674 5.65134e-05 -0.000852884)
(0.0380242 6.40586e-05 -0.000903823)
(0.0381333 7.47231e-05 -0.000944461)
(0.0382281 8.58531e-05 -0.000972536)
(0.0383585 9.78514e-05 -0.00098801)
(0.0384738 0.000105373 -0.000988144)
(0.0386188 0.000104161 -0.00097881)
(0.0387416 9.58047e-05 -0.000962661)
(0.038898 7.84129e-05 -0.000946884)
(0.0390148 5.82353e-05 -0.000929488)
(0.0391612 3.99268e-05 -0.000917796)
(0.03926 2.57273e-05 -0.0009172)
(0.0393721 1.79774e-05 -0.000940303)
(0.0394223 1.48012e-05 -0.000994593)
(0.0394681 1.61926e-05 -0.00107526)
(0.0394472 2.61234e-05 -0.00117117)
(0.0394314 4.77794e-05 -0.00127481)
(0.0393938 7.62126e-05 -0.00137213)
(0.039406 0.000105243 -0.0014265)
(0.0394153 0.000130123 -0.00138926)
(0.0522813 0.000212617 -0.00156864)
(0.0523223 0.000211354 -0.00136832)
(0.0523782 0.000180786 -0.00119898)
(0.0523493 0.000127932 -0.00109305)
(0.0523067 6.89434e-05 -0.00104341)
(0.0521797 1.5418e-05 -0.00103732)
(0.0520488 -2.63807e-05 -0.00105836)
(0.0518377 -5.42135e-05 -0.00107998)
(0.0516386 -6.82317e-05 -0.00108819)
(0.0513935 -7.25473e-05 -0.00107456)
(0.0511816 -6.97551e-05 -0.00103469)
(0.0509531 -5.76871e-05 -0.000969464)
(0.0507728 -4.0443e-05 -0.00088624)
(0.0505863 -1.71681e-05 -0.00079672)
(0.0504622 5.96571e-06 -0.000719328)
(0.0503361 2.87237e-05 -0.000659045)
(0.0502758 4.85651e-05 -0.000625895)
(0.0501986 6.4705e-05 -0.000618867)
(0.0501764 7.59864e-05 -0.000639935)
(0.0501216 7.81084e-05 -0.00068297)
(0.050116 7.03456e-05 -0.000730921)
(0.0500792 5.5318e-05 -0.000768065)
(0.0500867 3.42573e-05 -0.000784129)
(0.0500601 1.95413e-05 -0.000771105)
(0.0500594 1.02878e-05 -0.000743593)
(0.0500134 1.06342e-05 -0.000716862)
(0.050005 1.71167e-05 -0.000719344)
(0.0499587 3.01801e-05 -0.000751372)
(0.0499838 4.35816e-05 -0.000813843)
(0.0499879 5.6509e-05 -0.000896695)
(0.0500739 7.03072e-05 -0.000984154)
(0.0501433 8.62098e-05 -0.00106596)
(0.0502848 0.000107138 -0.00113801)
(0.0504132 0.000129136 -0.00119529)
(0.0505916 0.000151549 -0.00123588)
(0.0507597 0.000166669 -0.00125461)
(0.0509706 0.000168006 -0.00125668)
(0.0511508 0.000157204 -0.00124438)
(0.0513783 0.000132668 -0.00122716)
(0.0515464 0.00010388 -0.00120201)
(0.0517559 7.77257e-05 -0.00117928)
(0.0519012 5.7673e-05 -0.00116778)
(0.0520677 4.67893e-05 -0.00118229)
(0.0521565 4.32686e-05 -0.00123633)
(0.0522399 4.62494e-05 -0.00132608)
(0.052236 6.09895e-05 -0.00143888)
(0.0522359 9.1657e-05 -0.00156578)
(0.0521974 0.000127668 -0.00168621)
(0.0522124 0.000162914 -0.0017569)
(0.0522168 0.000193459 -0.0017188)
(0.0655515 0.000306513 -0.00195743)
(0.0655755 0.000300866 -0.001716)
(0.0656151 0.000259585 -0.00149895)
(0.0655419 0.000189808 -0.00134568)
(0.0654419 0.000109267 -0.00125652)
(0.0652219 3.18596e-05 -0.00122061)
(0.0649915 -3.17237e-05 -0.00122314)
(0.0646621 -7.65651e-05 -0.00123473)
(0.0643522 -0.000101168 -0.00123841)
(0.0640071 -0.00010882 -0.00122433)
(0.0637146 -0.000104573 -0.00118467)
(0.0634258 -8.49821e-05 -0.00111842)
(0.063211 -5.69017e-05 -0.00103195)
(0.063003 -2.02023e-05 -0.000936591)
(0.062882 1.58164e-05 -0.000850315)
(0.0627606 5.07426e-05 -0.000778281)
(0.0627267 8.12074e-05 -0.000733754)
(0.0626646 0.000105557 -0.000715341)
(0.062672 0.000122498 -0.000722795)
(0.0626289 0.000126094 -0.000753064)
(0.062633 0.000114139 -0.000783731)
(0.0625878 9.042e-05 -0.000797375)
(0.062576 5.5254e-05 -0.000785151)
(0.0625116 2.61303e-05 -0.000740743)
(0.0624744 3.38405e-06 -0.000684909)
(0.0623738 -7.69432e-06 -0.000633623)
(0.0623281 -9.47325e-06 -0.000623173)
(0.0622333 -8.0254e-08 -0.000655461)
(0.0622351 1.22632e-05 -0.00072684)
(0.0622145 2.74292e-05 -0.000829851)
(0.0623046 4.67435e-05 -0.000947392)
(0.0623799 7.20297e-05 -0.0010643)
(0.0625528 0.000106494 -0.00117592)
(0.062723 0.000145479 -0.0012755)
(0.0629606 0.000185733 -0.00135787)
(0.0631956 0.000216534 -0.00141451)
(0.0634938 0.000228482 -0.00144884)
(0.063749 0.000221011 -0.00145991)
(0.0640678 0.000193551 -0.00145893)
(0.0643053 0.000158738 -0.00144063)
(0.0645945 0.000125478 -0.00141394)
(0.0648055 9.99911e-05 -0.00139453)
(0.065047 8.69899e-05 -0.00140037)
(0.0652033 8.65605e-05 -0.00145391)
(0.0653583 9.74024e-05 -0.001559)
(0.0654095 0.000125674 -0.00170217)
(0.0654638 0.000174298 -0.00187358)
(0.0654562 0.000222218 -0.0020426)
(0.0654917 0.000261032 -0.00215191)
(0.0654908 0.000290133 -0.00212716)
(0.0791033 0.000461673 -0.00247454)
(0.0791349 0.000444034 -0.00220088)
(0.0791647 0.000391989 -0.00193793)
(0.0790397 0.000309111 -0.00173508)
(0.0788506 0.000209356 -0.00159945)
(0.0784792 0.00010318 -0.00151908)
(0.0780544 5.32579e-06 -0.00148193)
(0.0774926 -7.32835e-05 -0.00145744)
(0.0769344 -0.000127984 -0.00142558)
(0.0763571 -0.000156314 -0.00137897)
(0.0758661 -0.00016411 -0.00130947)
(0.0754244 -0.000145712 -0.00121762)
(0.0751172 -0.000109809 -0.00111132)
(0.0748616 -5.69946e-05 -0.00100436)
(0.0747513 -1.88656e-06 -0.000914649)
(0.0746627 5.29664e-05 -0.000843074)
(0.0747025 0.000104072 -0.000803238)
(0.0747128 0.000147754 -0.0007952)
(0.0748067 0.000180998 -0.000807197)
(0.0748388 0.000195943 -0.000836589)
(0.0749063 0.000185575 -0.000853464)
(0.074903 0.000154595 -0.000832936)
(0.0749152 0.000102343 -0.000769875)
(0.0748357 5.0398e-05 -0.000660153)
(0.0747732 3.69656e-06 -0.000539687)
(0.0746081 -3.10102e-05 -0.000430344)
(0.0744975 -5.42939e-05 -0.000375737)
(0.0743148 -6.03715e-05 -0.000386465)
(0.0742403 -6.01145e-05 -0.000450721)
(0.0741368 -5.28192e-05 -0.00055727)
(0.0741745 -3.60942e-05 -0.000692161)
(0.0742093 -7.00893e-06 -0.000835604)
(0.0743755 3.79849e-05 -0.000979371)
(0.0745665 9.48685e-05 -0.00111863)
(0.0748581 0.000158156 -0.0012453)
(0.0751608 0.00021161 -0.00134621)
(0.0755662 0.000244177 -0.00142598)
(0.0759246 0.000249927 -0.00148003)
(0.0763699 0.000228246 -0.00151793)
(0.0767181 0.000195882 -0.00153508)
(0.0771239 0.000162435 -0.00153154)
(0.0774376 0.000136925 -0.00152552)
(0.0777863 0.000124575 -0.00153741)
(0.078045 0.000128968 -0.00159682)
(0.0783174 0.00015126 -0.0017235)
(0.0784824 0.000202519 -0.00191077)
(0.0786669 0.000288507 -0.00215301)
(0.0787821 0.000371769 -0.00241323)
(0.0789311 0.000429314 -0.00260944)
(0.0790001 0.00045752 -0.00263899)
(0.0924277 0.000692556 -0.00306026)
(0.0926185 0.000659028 -0.00279723)
(0.0927612 0.000596371 -0.00251522)
(0.0926954 0.000511747 -0.00228481)
(0.0925086 0.000410813 -0.00212624)
(0.0920519 0.00028989 -0.00202025)
(0.0914331 0.000158094 -0.00195187)
(0.0905763 3.40888e-05 -0.0018908)
(0.0896269 -7.37354e-05 -0.00180872)
(0.0886117 -0.00015235 -0.00169901)
(0.0876848 -0.000202966 -0.00155494)
(0.0868461 -0.000214471 -0.00138268)
(0.0862268 -0.000193694 -0.0012)
(0.0857444 -0.000140511 -0.00103164)
(0.0855204 -7.32702e-05 -0.000905104)
(0.0853969 2.61737e-06 -0.000822709)
(0.0854894 8.04795e-05 -0.000791305)
(0.0856012 0.000157618 -0.000817795)
(0.0858355 0.000225788 -0.000874756)
(0.0860238 0.00027316 -0.000945404)
(0.0862496 0.000283702 -0.000988266)
(0.0863821 0.000256884 -0.000955736)
(0.0865188 0.000192203 -0.000841657)
(0.0865117 0.000113551 -0.000641197)
(0.086493 3.22796e-05 -0.000409758)
(0.0863137 -3.84165e-05 -0.000191715)
(0.0861522 -9.66864e-05 -4.18355e-05)
(0.085868 -0.000133054 1.33669e-05)
(0.0856691 -0.00015859 -1.54026e-05)
(0.0854023 -0.000172962 -0.000102713)
(0.0852776 -0.000174468 -0.000230938)
(0.0851549 -0.000156121 -0.000381958)
(0.0851944 -0.00011465 -0.00053635)
(0.0852953 -4.94641e-05 -0.000691694)
(0.0855587 3.48065e-05 -0.000843427)
(0.0858552 0.000111702 -0.000969514)
(0.0863139 0.000168173 -0.001077)
(0.0867472 0.000192019 -0.00116507)
(0.0873135 0.000179744 -0.0012397)
(0.0878016 0.000154611 -0.00130096)
(0.088375 0.000128979 -0.00134189)
(0.0888623 0.000114843 -0.0013749)
(0.0893967 0.000114456 -0.00142383)
(0.0898291 0.000130385 -0.00151666)
(0.0902856 0.000166571 -0.00168535)
(0.0906317 0.000239473 -0.00192878)
(0.0910217 0.000370318 -0.00225875)
(0.0913695 0.000515534 -0.00264691)
(0.0917851 0.000630661 -0.00299414)
(0.0921083 0.000690092 -0.00315469)
(0.104365 0.000908797 -0.00345619)
(0.104971 0.000883127 -0.00328677)
(0.105471 0.000822364 -0.00305112)
(0.105711 0.000755581 -0.00284314)
(0.105784 0.000686988 -0.00270916)
(0.105537 0.000593633 -0.00263206)
(0.10501 0.000462369 -0.00258503)
(0.10409 0.000312667 -0.0025396)
(0.102875 0.0001548 -0.00245568)
(0.101399 1.27147e-05 -0.00231602)
(0.0998718 -0.000106212 -0.00210425)
(0.098362 -0.00018221 -0.00182373)
(0.0970917 -0.000216669 -0.00150513)
(0.096028 -0.000204175 -0.00119533)
(0.0953541 -0.000161782 -0.00094483)
(0.0949144 -9.30483e-05 -0.000782213)
(0.0948369 -6.27652e-06 -0.00071418)
(0.0949041 9.99575e-05 -0.000755544)
(0.0952062 0.000215426 -0.000878567)
(0.0955407 0.000317966 -0.00103973)
(0.0959802 0.000380644 -0.00117834)
(0.0963429 0.000386045 -0.00120688)
(0.0967243 0.000327271 -0.00109672)
(0.0969308 0.000229337 -0.000830288)
(0.0970878 0.00010921 -0.000471118)
(0.0970258 -6.80544e-06 -9.58189e-05)
(0.0969231 -0.000111094 0.000212104)
(0.0966192 -0.000189647 0.000404685)
(0.0963362 -0.00024944 0.000470129)
(0.095904 -0.000293617 0.000433866)
(0.095542 -0.000327095 0.000338577)
(0.0951263 -0.000337429 0.000201319)
(0.0948597 -0.000318393 5.59978e-05)
(0.0946522 -0.000264524 -8.20237e-05)
(0.0946824 -0.000173014 -0.00022102)
(0.0947862 -8.12863e-05 -0.000336112)
(0.0951237 -6.29419e-06 -0.000429207)
(0.0954742 3.27904e-05 -0.000508761)
(0.0960127 2.20498e-05 -0.000579721)
(0.0965237 -1.00374e-05 -0.000646647)
(0.0971925 -4.21457e-05 -0.000705442)
(0.0978371 -5.17778e-05 -0.000762315)
(0.0986054 -3.27795e-05 -0.000844884)
(0.0993091 1.22521e-05 -0.000981066)
(0.100066 7.72321e-05 -0.00120714)
(0.100714 0.000169267 -0.00153309)
(0.101404 0.00033436 -0.00197217)
(0.102066 0.000537662 -0.00250385)
(0.102849 0.000729478 -0.00303356)
(0.1036 0.000863516 -0.00339131)
(0.113384 0.000910812 -0.00327873)
(0.114574 0.00093276 -0.00326618)
(0.115649 0.000908001 -0.00316137)
(0.116443 0.000890933 -0.00306262)
(0.117047 0.000891788 -0.00302157)
(0.11737 0.00087725 -0.00303628)
(0.117417 0.000809825 -0.00307225)
(0.117019 0.000695576 -0.00311073)
(0.116142 0.000540364 -0.00311516)
(0.114713 0.000372578 -0.00305892)
(0.112895 0.000206102 -0.00289994)
(0.110795 6.93919e-05 -0.0026066)
(0.10875 -3.37388e-05 -0.00219253)
(0.106828 -9.28179e-05 -0.00171935)
(0.105327 -0.000121429 -0.00126705)
(0.104152 -0.000118177 -0.000915096)
(0.103484 -7.83567e-05 -0.000708984)
(0.103118 1.00948e-05 -0.000678384)
(0.103166 0.000148083 -0.000818908)
(0.103406 0.000304269 -0.00107218)
(0.103908 0.000438945 -0.00135428)
(0.104451 0.00051012 -0.00153223)
(0.105096 0.000488339 -0.00153201)
(0.105605 0.000393501 -0.00129917)
(0.10605 0.000241507 -0.000879067)
(0.10624 7.46792e-05 -0.000360163)
(0.10634 -8.5352e-05 0.000140375)
(0.106178 -0.000210954 0.000541774)
(0.105968 -0.00030678 0.000800222)
(0.105533 -0.000375959 0.00089315)
(0.105061 -0.000434808 0.000870469)
(0.104388 -0.00047721 0.000766164)
(0.103759 -0.000492785 0.000627026)
(0.103078 -0.000473743 0.000508767)
(0.102635 -0.00040033 0.000410346)
(0.102288 -0.000308204 0.0003451)
(0.102241 -0.000220327 0.000310234)
(0.102255 -0.000167863 0.000290313)
(0.102499 -0.000183234 0.000276799)
(0.102749 -0.000243429 0.000267858)
(0.10322 -0.000322912 0.000262819)
(0.103756 -0.000376944 0.000252079)
(0.10456 -0.000379275 0.000202509)
(0.105448 -0.000324874 7.53616e-05)
(0.106516 -0.000226305 -0.000172506)
(0.107551 -9.24934e-05 -0.00055981)
(0.108645 9.69286e-05 -0.00110326)
(0.109705 0.000339156 -0.00177823)
(0.110883 0.000588333 -0.00247993)
(0.112091 0.000795128 -0.00302712)
(0.118352 0.000547529 -0.00234057)
(0.120001 0.000618518 -0.00242574)
(0.12164 0.000651971 -0.00244233)
(0.123099 0.00071825 -0.00251466)
(0.124377 0.00082449 -0.00266225)
(0.125422 0.000921411 -0.00285849)
(0.126278 0.00095311 -0.00303853)
(0.12684 0.000917559 -0.00318343)
(0.127012 0.000826119 -0.00329125)
(0.126544 0.000716156 -0.00337459)
(0.125383 0.000599856 -0.00340807)
(0.123489 0.000493589 -0.00331671)
(0.121212 0.000390819 -0.00303689)
(0.118709 0.000296368 -0.00257475)
(0.11642 0.00019945 -0.00199829)
(0.114354 0.000106336 -0.00142124)
(0.112787 4.05427e-05 -0.000971891)
(0.111581 3.41568e-05 -0.000738187)
(0.110914 0.000119483 -0.000773097)
(0.110625 0.000278514 -0.00103838)
(0.110795 0.000464016 -0.00144196)
(0.111225 0.000613438 -0.00180926)
(0.11192 0.00065909 -0.00201097)
(0.112623 0.000600741 -0.00194163)
(0.113315 0.000439916 -0.00160219)
(0.11376 0.000226268 -0.00106547)
(0.114082 -1.7925e-06 -0.000445862)
(0.11411 -0.000191602 0.000153375)
(0.114061 -0.000337027 0.000672465)
(0.113773 -0.000430091 0.0010291)
(0.11345 -0.00049133 0.00120201)
(0.11283 -0.000536942 0.00120838)
(0.112129 -0.000563837 0.00109065)
(0.111174 -0.000574073 0.000949419)
(0.110306 -0.000534927 0.000841683)
(0.109442 -0.000462345 0.000800758)
(0.108872 -0.000376261 0.000820915)
(0.108388 -0.000311628 0.000876486)
(0.108133 -0.000323965 0.000949874)
(0.107854 -0.000416884 0.0010427)
(0.107751 -0.000574756 0.00116535)
(0.107703 -0.000738292 0.00130425)
(0.10801 -0.000850112 0.00140887)
(0.108602 -0.000866375 0.0014098)
(0.10962 -0.000782906 0.00123832)
(0.110856 -0.000614855 0.000857349)
(0.112277 -0.000401574 0.000265795)
(0.113699 -0.000137465 -0.000505478)
(0.115197 0.000141098 -0.00132352)
(0.116718 0.000387791 -0.001985)
(0.119466 -0.000157712 -0.000901644)
(0.121113 -8.63122e-05 -0.000967433)
(0.122906 -3.07849e-05 -0.000957111)
(0.124798 0.000109719 -0.00107417)
(0.126718 0.000338023 -0.00137979)
(0.128526 0.000580071 -0.00182384)
(0.130165 0.000742969 -0.00227915)
(0.131555 0.000787131 -0.00263399)
(0.132716 0.000730191 -0.00284966)
(0.133459 0.000648194 -0.00296912)
(0.133663 0.000604413 -0.00307489)
(0.133038 0.000629961 -0.00318272)
(0.13172 0.000697366 -0.00322933)
(0.129743 0.00075786 -0.00311375)
(0.127563 0.000747438 -0.00277226)
(0.125256 0.0006456 -0.0022165)
(0.123153 0.000487412 -0.00159342)
(0.121219 0.000338034 -0.00108039)
(0.119689 0.000279792 -0.000855022)
(0.118568 0.000348312 -0.000975292)
(0.118007 0.000514659 -0.00139003)
(0.11793 0.000709756 -0.0019118)
(0.118321 0.000830487 -0.0023446)
(0.118921 0.000841939 -0.00252031)
(0.119631 0.000715087 -0.00238562)
(0.120152 0.000492509 -0.00198866)
(0.120547 0.000214771 -0.00142626)
(0.120625 -5.00224e-05 -0.000784351)
(0.120621 -0.000276749 -0.000104602)
(0.120364 -0.000437226 0.000540791)
(0.12015 -0.000529771 0.00105023)
(0.119694 -0.000581364 0.00135431)
(0.11921 -0.000591608 0.00141813)
(0.118436 -0.000583999 0.00131516)
(0.117647 -0.000542557 0.00115219)
(0.116743 -0.000473076 0.00102908)
(0.116024 -0.000384875 0.000990106)
(0.115329 -0.000301325 0.00102102)
(0.114786 -0.000284774 0.00110536)
(0.114095 -0.000369151 0.00125058)
(0.11336 -0.000574456 0.00148819)
(0.112448 -0.000861747 0.00182495)
(0.111695 -0.00115819 0.00220352)
(0.111253 -0.00137009 0.0024974)
(0.111423 -0.0014424 0.00257816)
(0.112161 -0.00135075 0.00234802)
(0.113373 -0.00114711 0.00181279)
(0.11481 -0.000867776 0.00102937)
(0.116354 -0.000569019 0.000166317)
(0.117892 -0.000315001 -0.000537497)
(0.118896 -0.00101985 0.000587978)
(0.120083 -0.00101681 0.000533327)
(0.121422 -0.00102482 0.000627471)
(0.123065 -0.000905597 0.000634512)
(0.125059 -0.000620936 0.000397508)
(0.12728 -0.000241834 -9.94449e-05)
(0.129561 9.57204e-05 -0.000782692)
(0.131646 0.00029797 -0.00147145)
(0.133479 0.000320093 -0.00200551)
(0.134881 0.000214481 -0.00230313)
(0.135869 0.000112661 -0.00241019)
(0.136229 0.000137669 -0.00243007)
(0.136089 0.000319084 -0.00247488)
(0.135397 0.000609656 -0.00257975)
(0.134459 0.000899441 -0.00267012)
(0.133257 0.00106607 -0.00257078)
(0.131923 0.00105322 -0.00220894)
(0.130388 0.000898922 -0.0016586)
(0.128788 0.00071006 -0.00116599)
(0.127271 0.000605338 -0.000970657)
(0.126095 0.00064355 -0.00118125)
(0.125414 0.000799175 -0.00170463)
(0.125322 0.000965102 -0.00232239)
(0.125613 0.00106678 -0.00277399)
(0.126153 0.00102644 -0.00291761)
(0.126545 0.000854975 -0.00275274)
(0.126811 0.000582223 -0.00238416)
(0.126698 0.000278081 -0.00189116)
(0.12651 -1.38389e-05 -0.00129334)
(0.126062 -0.000259147 -0.000578688)
(0.125706 -0.000427261 0.000180065)
(0.125175 -0.000534561 0.000861818)
(0.124688 -0.00058247 0.00132094)
(0.124017 -0.000593216 0.00150527)
(0.123407 -0.000567831 0.00147248)
(0.12281 -0.000503969 0.00132163)
(0.122489 -0.000387892 0.00115572)
(0.122294 -0.000224587 0.00101212)
(0.122248 -9.09518e-05 0.000910056)
(0.121956 -5.65498e-05 0.000894318)
(0.121317 -0.000191992 0.00104334)
(0.120099 -0.000491516 0.00141922)
(0.118493 -0.000922316 0.00201526)
(0.116775 -0.00136585 0.00267698)
(0.115421 -0.00171429 0.00319576)
(0.114748 -0.00185828 0.00335184)
(0.114828 -0.00180196 0.00309091)
(0.115517 -0.00159058 0.00246346)
(0.11656 -0.00132849 0.00166799)
(0.117733 -0.00111854 0.000968079)
(0.120077 -0.00161145 0.00185773)
(0.1206 -0.00174627 0.00171791)
(0.121128 -0.0019211 0.0017838)
(0.12187 -0.00198275 0.00190264)
(0.123087 -0.00180953 0.00185747)
(0.124851 -0.00142453 0.00155012)
(0.127096 -0.000967929 0.000914353)
(0.12946 -0.000582807 6.96133e-05)
(0.131708 -0.000383488 -0.000801132)
(0.133491 -0.000385115 -0.00149212)
(0.13477 -0.000501247 -0.00188067)
(0.135403 -0.000576175 -0.00196764)
(0.135585 -0.000489066 -0.00188213)
(0.135421 -0.000192508 -0.00181568)
(0.135224 0.000250041 -0.00190617)
(0.135091 0.000701701 -0.0020784)
(0.135031 0.00102181 -0.00216809)
(0.134875 0.00114344 -0.00200366)
(0.134447 0.00108393 -0.00161859)
(0.133726 0.000941344 -0.00123497)
(0.132881 0.000841995 -0.00110366)
(0.132187 0.000851527 -0.00133036)
(0.131966 0.000948223 -0.00185197)
(0.132172 0.00108305 -0.00241682)
(0.132766 0.00115406 -0.00281216)
(0.133235 0.00111629 -0.00293197)
(0.133508 0.000957408 -0.00284327)
(0.133198 0.000709492 -0.0026192)
(0.13264 0.000419421 -0.00229334)
(0.131749 0.000121509 -0.00179525)
(0.130987 -0.000123574 -0.00110045)
(0.130206 -0.000293848 -0.000286919)
(0.129559 -0.000383748 0.000495309)
(0.128793 -0.000423963 0.00107774)
(0.128002 -0.000451214 0.0014183)
(0.127202 -0.000485233 0.00152668)
(0.126741 -0.000489771 0.00146556)
(0.126724 -0.000390568 0.00127035)
(0.1273 -0.000188837 0.000957718)
(0.128129 7.02161e-05 0.00060377)
(0.128836 0.00024142 0.000351342)
(0.12886 0.000217401 0.000370045)
(0.127933 -8.79498e-05 0.000800881)
(0.126109 -0.000606491 0.00158185)
(0.123794 -0.00119297 0.0025258)
(0.121612 -0.00163225 0.0032604)
(0.120004 -0.00184605 0.00357916)
(0.119228 -0.00183239 0.00340281)
(0.11915 -0.00170846 0.00288109)
(0.119544 -0.00160119 0.00227832)
(0.125185 -0.00160935 0.00269631)
(0.125062 -0.00187771 0.00251116)
(0.124834 -0.00222945 0.00248469)
(0.124521 -0.00256043 0.00260955)
(0.124431 -0.00267912 0.00269631)
(0.124878 -0.00252023 0.00263949)
(0.126098 -0.0021246 0.00226315)
(0.127916 -0.00164114 0.00154897)
(0.130084 -0.00124501 0.000613057)
(0.132117 -0.00105541 -0.000347175)
(0.133722 -0.0010758 -0.00109139)
(0.134633 -0.00116628 -0.00150026)
(0.134887 -0.00118525 -0.00159384)
(0.134677 -0.000981816 -0.00152814)
(0.134361 -0.000571719 -0.00153637)
(0.134266 -4.78617e-05 -0.00168307)
(0.13449 0.000446189 -0.00192465)
(0.134979 0.000790671 -0.00205468)
(0.135459 0.000953898 -0.00194061)
(0.135722 0.000968074 -0.00165792)
(0.135716 0.000924851 -0.00143009)
(0.135534 0.000880762 -0.00142061)
(0.135574 0.000863679 -0.00169735)
(0.135924 0.000900839 -0.00209121)
(0.136818 0.000949077 -0.00240353)
(0.137797 0.000980105 -0.00250209)
(0.138724 0.000967893 -0.00246905)
(0.138969 0.00087992 -0.00242069)
(0.138611 0.000706478 -0.00243182)
(0.137551 0.000466446 -0.00239617)
(0.136304 0.00020571 -0.00211461)
(0.135035 -8.45615e-06 -0.00153681)
(0.134009 -0.00013645 -0.000727209)
(0.133112 -0.000167893 7.67966e-05)
(0.132261 -0.00014811 0.000731229)
(0.13132 -0.000160942 0.00116204)
(0.130419 -0.000228481 0.00136575)
(0.129723 -0.000299287 0.00136552)
(0.1296 -0.000311412 0.00112895)
(0.130212 -0.000174858 0.000681854)
(0.131538 5.93882e-05 0.00013055)
(0.133192 0.000312733 -0.000372746)
(0.134521 0.000440562 -0.000561824)
(0.134907 0.000341816 -0.000278662)
(0.133993 -3.77694e-05 0.000564958)
(0.132047 -0.000561849 0.00165812)
(0.129663 -0.00102124 0.00264069)
(0.127569 -0.00128281 0.00320282)
(0.126149 -0.00139715 0.00326856)
(0.125439 -0.00147246 0.00301399)
(0.133855 -0.000974772 0.00271368)
(0.133146 -0.00134033 0.00263824)
(0.132382 -0.00178799 0.00257629)
(0.131332 -0.00230681 0.00268242)
(0.130101 -0.00274117 0.00285624)
(0.129021 -0.00296265 0.00301833)
(0.128589 -0.00288751 0.00296438)
(0.128995 -0.00254824 0.0025568)
(0.130217 -0.00210847 0.00182352)
(0.131927 -0.00175171 0.000881962)
(0.133671 -0.00159745 1.88382e-05)
(0.135002 -0.00159299 -0.000599104)
(0.1356 -0.00162606 -0.000933961)
(0.135514 -0.00149582 -0.00106404)
(0.135013 -0.00113282 -0.0012175)
(0.134572 -0.000603409 -0.00144845)
(0.134419 -4.27526e-05 -0.00179053)
(0.13467 0.000409668 -0.00209683)
(0.135156 0.000685791 -0.00218926)
(0.135646 0.000796023 -0.00204482)
(0.136042 0.000842951 -0.00185335)
(0.136199 0.000860514 -0.00178818)
(0.136405 0.000850281 -0.00197081)
(0.136698 0.000827842 -0.00230521)
(0.137499 0.000774522 -0.00259873)
(0.138629 0.000705997 -0.00264073)
(0.140103 0.00065662 -0.00244845)
(0.141285 0.000617634 -0.00216524)
(0.141867 0.000541874 -0.0020031)
(0.141499 0.000430758 -0.00209448)
(0.140458 0.000264303 -0.00221982)
(0.139098 0.000101182 -0.00216214)
(0.137819 -2.45947e-05 -0.00172354)
(0.136748 -7.11648e-05 -0.00100561)
(0.135804 -1.25019e-05 -0.000221943)
(0.134847 7.76525e-05 0.000448726)
(0.133841 0.000157859 0.000869535)
(0.132832 0.000173305 0.00103945)
(0.132037 0.000108889 0.000929471)
(0.131752 5.78551e-05 0.000536788)
(0.132169 2.08071e-05 -2.04508e-05)
(0.133396 6.2564e-05 -0.000662675)
(0.135206 0.000159055 -0.00120701)
(0.137216 0.000303359 -0.0015499)
(0.138793 0.000360812 -0.00141445)
(0.13946 0.000261444 -0.000718473)
(0.139001 4.15357e-05 0.000402397)
(0.137713 -0.000215454 0.00154334)
(0.136147 -0.00044201 0.00233282)
(0.134808 -0.000694521 0.00268903)
(0.141478 -0.000380963 0.00202686)
(0.140966 -0.000720516 0.00226902)
(0.140438 -0.00106461 0.00224934)
(0.139604 -0.00148298 0.00223992)
(0.138253 -0.00197203 0.0023437)
(0.136472 -0.00243603 0.00258859)
(0.134724 -0.00273298 0.00281563)
(0.133518 -0.00275256 0.00277601)
(0.133156 -0.00253816 0.00240079)
(0.13373 -0.00221489 0.00168206)
(0.134909 -0.00198453 0.000902563)
(0.136261 -0.00191827 0.000287773)