/*--------------------------------*- C++ -*----------------------------------*\
| =========                 |                                                 |
| \\      /  F ield         | OpenFOAM: The Open Source CFD Toolbox           |
|  \\    /   O peration     | Version:  2.3.0                                 |
|   \\  /    A nd           | Web:      www.OpenFOAM.org                      |
|    \\/     M anipulation  |                                                 |
\*---------------------------------------------------------------------------*/
FoamFile
{
    version     2.0;
    format      ascii;
    class       volVectorField;
    location    "300";
    object      U_0;
}
// * * * * * * * * * * * * * * * * * * * * * * * * * * * * * * * * * * * * * //

dimensions      [0 1 -1 0 0 0 0];

internalField   nonuniform List<vector> 
90000
(
(0.00515051 7.87686e-06 -0.00030251)
(0.00514849 7.87247e-06 -0.000232062)
(0.00514087 7.51171e-06 -0.000172408)
(0.00511788 5.0187e-06 -0.000139947)
(0.00509789 2.37909e-06 -0.000126351)
(0.00508164 3.0767e-07 -0.000128351)
(0.00507217 -1.55719e-06 -0.000139196)
(0.00505929 -2.8419e-06 -0.00015046)
(0.00504828 -3.62187e-06 -0.000157461)
(0.00503309 -4.1836e-06 -0.000158728)
(0.00502329 -4.62272e-06 -0.00015225)
(0.00501173 -4.6997e-06 -0.000137403)
(0.00500481 -4.46161e-06 -0.000115566)
(0.00499382 -3.76483e-06 -9.1685e-05)
(0.00498669 -3.00892e-06 -7.10319e-05)
(0.00497752 -2.18037e-06 -5.50626e-05)
(0.00497164 -1.19678e-06 -4.68812e-05)
(0.00495983 -2.33466e-08 -4.81597e-05)
(0.00494689 1.10597e-06 -6.08467e-05)
(0.00492967 1.80928e-06 -8.49406e-05)
(0.00492247 1.95003e-06 -0.000115237)
(0.00492419 1.56366e-06 -0.000143628)
(0.00494468 6.14555e-07 -0.000161499)
(0.00497078 -9.366e-08 -0.000161435)
(0.00499895 -4.4796e-07 -0.000146529)
(0.00501304 -2.13618e-07 -0.000123635)
(0.00501743 1.85531e-07 -0.000104611)
(0.00500862 7.43112e-07 -9.39607e-05)
(0.00500076 1.15391e-06 -9.22737e-05)
(0.00499393 1.11888e-06 -9.8069e-05)
(0.005 9.53038e-07 -0.000106232)
(0.00501066 6.99145e-07 -0.000114813)
(0.00503038 8.75998e-07 -0.000122402)
(0.00504658 1.30981e-06 -0.000129253)
(0.00506235 2.18053e-06 -0.000134475)
(0.00506727 3.05427e-06 -0.000136056)
(0.00507119 3.35988e-06 -0.000135283)
(0.00507072 3.24661e-06 -0.000132856)
(0.00507785 2.40583e-06 -0.000129972)
(0.00508832 9.16215e-07 -0.000124208)
(0.00511009 -7.27403e-07 -0.000115489)
(0.00513423 -2.02393e-06 -0.000107365)
(0.00516326 -2.67342e-06 -0.000106221)
(0.00518301 -2.93605e-06 -0.000117949)
(0.00519712 -2.66156e-06 -0.00014278)
(0.00519173 -1.73709e-06 -0.000178316)
(0.00517591 -6.16683e-07 -0.000226106)
(0.00515672 2.33987e-06 -0.000286535)
(0.00515055 5.14056e-06 -0.00033759)
(0.00514748 7.08364e-06 -0.000346261)
(0.0158057 3.98832e-05 -0.000657128)
(0.0158029 4.11617e-05 -0.000540176)
(0.0157964 3.79777e-05 -0.000452158)
(0.0157618 2.71e-05 -0.000407555)
(0.0157322 1.48269e-05 -0.000393194)
(0.0156932 3.78459e-06 -0.000399576)
(0.0156608 -5.00015e-06 -0.00041477)
(0.0156106 -1.15591e-05 -0.000425004)
(0.0155647 -1.5789e-05 -0.00042464)
(0.0155049 -1.86332e-05 -0.000411432)
(0.0154577 -2.02334e-05 -0.000384667)
(0.0154022 -1.97276e-05 -0.000345822)
(0.0153614 -1.74741e-05 -0.000299948)
(0.0153126 -1.32681e-05 -0.000255926)
(0.01528 -8.75982e-06 -0.000222715)
(0.0152431 -3.90449e-06 -0.000202104)
(0.0152215 1.19732e-06 -0.000199132)
(0.0151917 5.95116e-06 -0.000213646)
(0.0151739 9.81954e-06 -0.000246169)
(0.0151531 1.14791e-05 -0.000291697)
(0.0151577 1.07842e-05 -0.000339273)
(0.0151702 8.29585e-06 -0.000376397)
(0.015211 4.44757e-06 -0.000393083)
(0.0152455 2.18867e-06 -0.000383579)
(0.0152832 1.58211e-06 -0.000358168)
(0.0152929 3.04746e-06 -0.00032839)
(0.0152982 5.07497e-06 -0.000311323)
(0.0152846 7.63905e-06 -0.000309091)
(0.0152863 9.37232e-06 -0.000321468)
(0.0152877 9.82738e-06 -0.000342395)
(0.0153176 1.00444e-05 -0.000364156)
(0.0153475 1.03668e-05 -0.000383283)
(0.015397 1.21703e-05 -0.000397645)
(0.0154359 1.46036e-05 -0.000407543)
(0.0154822 1.79991e-05 -0.000412176)
(0.0155125 2.05121e-05 -0.000409857)
(0.0155523 2.04823e-05 -0.00040414)
(0.015584 1.85889e-05 -0.000396198)
(0.015634 1.39861e-05 -0.000388918)
(0.0156784 7.88682e-06 -0.000379999)
(0.0157396 2.11997e-06 -0.000372862)
(0.0157874 -2.00263e-06 -0.000373517)
(0.0158389 -3.52204e-06 -0.000391592)
(0.0158612 -3.53572e-06 -0.00043241)
(0.015875 -1.70652e-06 -0.000493092)
(0.0158531 2.20804e-06 -0.000566785)
(0.0158284 7.68838e-06 -0.000649743)
(0.0157987 1.75604e-05 -0.000731585)
(0.0157962 2.73668e-05 -0.000777879)
(0.0157937 3.51725e-05 -0.000751805)
(0.0272663 8.89596e-05 -0.00095423)
(0.0272797 8.89124e-05 -0.000815236)
(0.0272937 7.69143e-05 -0.000712236)
(0.0272625 5.31963e-05 -0.000659611)
(0.0272307 2.75727e-05 -0.000643145)
(0.0271673 4.85855e-06 -0.00065029)
(0.0271063 -1.252e-05 -0.000666762)
(0.0270082 -2.47875e-05 -0.000675347)
(0.0269159 -3.20307e-05 -0.000669666)
(0.0267977 -3.60843e-05 -0.000646754)
(0.0266988 -3.7282e-05 -0.000606828)
(0.026586 -3.43772e-05 -0.000552649)
(0.0264992 -2.84494e-05 -0.000491118)
(0.0264037 -1.92185e-05 -0.000433113)
(0.0263397 -9.84251e-06 -0.000390295)
(0.0262722 3.26898e-07 -0.000364149)
(0.026236 9.95723e-06 -0.000360518)
(0.0261912 1.82354e-05 -0.00037776)
(0.0261723 2.45107e-05 -0.000415837)
(0.0261459 2.65407e-05 -0.00046749)
(0.0261542 2.42922e-05 -0.00052013)
(0.0261608 1.90566e-05 -0.000560327)
(0.0262021 1.18368e-05 -0.000578601)
(0.0262262 7.94025e-06 -0.000569761)
(0.0262606 7.11351e-06 -0.000546829)
(0.0262609 1.02942e-05 -0.000522623)
(0.0262681 1.4922e-05 -0.000516127)
(0.0262524 2.11443e-05 -0.000527616)
(0.0262673 2.5848e-05 -0.000556604)
(0.0262758 2.87296e-05 -0.000593789)
(0.0263276 3.12292e-05 -0.000630048)
(0.0263732 3.40319e-05 -0.000660448)
(0.026453 3.913e-05 -0.000682611)
(0.026519 4.47385e-05 -0.000696203)
(0.0266057 5.13275e-05 -0.000701229)
(0.0266755 5.52489e-05 -0.000696206)
(0.0267647 5.38859e-05 -0.000686357)
(0.0268393 4.85002e-05 -0.000673735)
(0.0269382 3.7715e-05 -0.000663129)
(0.0270154 2.51868e-05 -0.000652563)
(0.0271135 1.39645e-05 -0.000647489)
(0.0271803 5.72264e-06 -0.000653534)
(0.0272536 1.99894e-06 -0.000681558)
(0.0272813 1.0983e-06 -0.000735814)
(0.0273031 3.6883e-06 -0.000811265)
(0.0272757 1.15978e-05 -0.000898284)
(0.0272533 2.56203e-05 -0.000990586)
(0.0272211 4.50434e-05 -0.00107501)
(0.0272282 6.42766e-05 -0.00111493)
(0.0272334 7.99008e-05 -0.0010718)
(0.0394732 0.000146052 -0.00123638)
(0.0395081 0.000143877 -0.00107256)
(0.0395477 0.000121068 -0.000948085)
(0.0395225 8.28685e-05 -0.00088038)
(0.0394901 4.21182e-05 -0.000857229)
(0.0394003 6.44986e-06 -0.000864405)
(0.0393086 -2.08228e-05 -0.000885715)
(0.0391579 -3.88612e-05 -0.000899623)
(0.0390154 -4.83863e-05 -0.0008973)
(0.0388343 -5.24166e-05 -0.000873819)
(0.0386792 -5.17866e-05 -0.000828434)
(0.0385062 -4.49938e-05 -0.000764128)
(0.0383701 -3.42371e-05 -0.000688822)
(0.0382259 -1.89223e-05 -0.000614667)
(0.0381289 -3.80216e-06 -0.000556647)
(0.0380296 1.18668e-05 -0.000517063)
(0.0379781 2.58515e-05 -0.000503247)
(0.0379154 3.75125e-05 -0.000513501)
(0.0378923 4.57747e-05 -0.000548449)
(0.0378518 4.74819e-05 -0.000600085)
(0.0378544 4.26302e-05 -0.000654031)
(0.0378421 3.32933e-05 -0.000695807)
(0.0378718 2.10792e-05 -0.000715709)
(0.0378753 1.41213e-05 -0.000707839)
(0.0378974 1.1699e-05 -0.000686721)
(0.0378812 1.58615e-05 -0.000666815)
(0.0378859 2.30766e-05 -0.000670076)
(0.0378621 3.37588e-05 -0.000695698)
(0.0378874 4.28718e-05 -0.00074359)
(0.0378983 5.02365e-05 -0.000802373)
(0.03797 5.73825e-05 -0.000860221)
(0.0380291 6.53502e-05 -0.000910477)
(0.0381402 7.65071e-05 -0.000950082)
(0.0382358 8.79202e-05 -0.000976867)
(0.038367 9.98368e-05 -0.000990693)
(0.038483 0.000106535 -0.000989227)
(0.0386285 0.000104104 -0.000978718)
(0.0387522 9.44845e-05 -0.000962046)
(0.0389087 7.60705e-05 -0.000945913)
(0.0390252 5.56756e-05 -0.000928302)
(0.0391709 3.7682e-05 -0.000917266)
(0.0392676 2.41932e-05 -0.000918686)
(0.0393764 1.71852e-05 -0.000945264)
(0.0394222 1.46596e-05 -0.00100303)
(0.0394629 1.72389e-05 -0.00108562)
(0.0394371 2.89583e-05 -0.00118254)
(0.0394208 5.18673e-05 -0.00128612)
(0.0393864 8.03815e-05 -0.00138014)
(0.0394027 0.000108845 -0.00142433)
(0.0394159 0.000132552 -0.00137348)
(0.0522828 0.000212877 -0.00153945)
(0.0523239 0.00020783 -0.00134028)
(0.0523746 0.000173286 -0.00118056)
(0.052339 0.000118641 -0.00108311)
(0.0522907 5.9901e-05 -0.00104098)
(0.0521582 7.80293e-06 -0.00103978)
(0.0520224 -3.20092e-05 -0.00106238)
(0.0518076 -5.76377e-05 -0.00108276)
(0.0516073 -6.98335e-05 -0.00108844)
(0.0513627 -7.27824e-05 -0.00107159)
(0.0511529 -6.86512e-05 -0.00102844)
(0.0509275 -5.53355e-05 -0.000960716)
(0.0507507 -3.71249e-05 -0.000876484)
(0.0505684 -1.33729e-05 -0.000788139)
(0.0504486 9.68582e-06 -0.000713176)
(0.0503269 3.21235e-05 -0.00065595)
(0.0502696 5.15147e-05 -0.000626277)
(0.0501941 6.70323e-05 -0.000622654)
(0.0501727 7.73129e-05 -0.000646748)
(0.0501183 7.7976e-05 -0.00069116)
(0.0501134 6.88426e-05 -0.000738076)
(0.0500773 5.27866e-05 -0.000772097)
(0.0500846 3.17189e-05 -0.00078348)
(0.0500567 1.78496e-05 -0.000766434)
(0.0500535 9.62591e-06 -0.000737491)
(0.0500058 1.10544e-05 -0.000712781)
(0.0499967 1.83346e-05 -0.000719766)
(0.0499521 3.19705e-05 -0.000756512)
(0.0499803 4.51439e-05 -0.00082271)
(0.0499882 5.81095e-05 -0.000907522)
(0.0500781 7.22127e-05 -0.000995245)
(0.0501506 8.88228e-05 -0.00107643)
(0.0502951 0.000110487 -0.00114734)
(0.0504252 0.000132836 -0.00120298)
(0.0506055 0.00015502 -0.00124136)
(0.0507753 0.000168837 -0.00125776)
(0.050987 0.00016825 -0.00125787)
(0.0511684 0.000155495 -0.00124437)
(0.0513955 0.000129461 -0.00122618)
(0.0515627 0.000100453 -0.00120025)
(0.0517709 7.47301e-05 -0.00117792)
(0.0519135 5.56935e-05 -0.0011686)
(0.0520758 4.59159e-05 -0.00118727)
(0.0521587 4.33195e-05 -0.00124586)
(0.0522351 4.78179e-05 -0.00133844)
(0.0522247 6.50003e-05 -0.00145294)
(0.052223 9.70225e-05 -0.00157999)
(0.0521869 0.000132599 -0.00169655)
(0.0522059 0.000167085 -0.00175515)
(0.0522148 0.000196247 -0.00170055)
(0.0655485 0.000305832 -0.00192266)
(0.0655713 0.000295747 -0.00168087)
(0.0656032 0.000249536 -0.00147351)
(0.0655196 0.000177186 -0.00132956)
(0.0654099 9.64189e-05 -0.00124927)
(0.065181 2.04626e-05 -0.00121965)
(0.0649436 -4.0595e-05 -0.00122486)
(0.0646099 -8.23596e-05 -0.00123581)
(0.0643004 -0.000104141 -0.00123727)
(0.0639584 -0.000109543 -0.00122002)
(0.0636716 -0.000103147 -0.00117695)
(0.0633899 -8.15682e-05 -0.00110807)
(0.0631823 -5.20162e-05 -0.00102052)
(0.062982 -1.45809e-05 -0.00092641)
(0.0628681 2.12516e-05 -0.000842646)
(0.0627534 5.57753e-05 -0.000773862)
(0.0627239 8.55541e-05 -0.000733085)
(0.0626642 0.00010897 -0.000718117)
(0.0626725 0.000124458 -0.000728573)
(0.0626289 0.000125899 -0.000759933)
(0.0626326 0.000111826 -0.000788782)
(0.0625863 8.63817e-05 -0.000798459)
(0.0625726 5.08061e-05 -0.00078087)
(0.0625057 2.25317e-05 -0.000732283)
(0.0624648 1.13211e-06 -0.000675473)
(0.0623623 -8.58796e-06 -0.000627311)
(0.0623161 -9.0489e-06 -0.000623075)
(0.062224 1.57809e-06 -0.000661679)
(0.0622303 1.40223e-05 -0.000738046)
(0.0622152 2.96894e-05 -0.00084422)
(0.0623109 4.97907e-05 -0.00096282)
(0.0623909 7.63598e-05 -0.00107958)
(0.0625688 0.000112121 -0.00119039)
(0.0627422 0.000151757 -0.00128841)
(0.0629831 0.000191732 -0.00136828)
(0.0632213 0.000220772 -0.00142208)
(0.0635209 0.000229924 -0.00145367)
(0.0637774 0.000219586 -0.00146274)
(0.0640954 0.000189961 -0.00145998)
(0.0643312 0.000154749 -0.00143978)
(0.0646188 0.000121941 -0.00141266)
(0.0648266 9.7834e-05 -0.00139526)
(0.0650638 8.65842e-05 -0.00140592)
(0.0652137 8.77753e-05 -0.00146564)
(0.0653606 0.000100806 -0.00157541)
(0.0654037 0.000132377 -0.00172194)
(0.0654544 0.000181985 -0.00189429)
(0.0654466 0.000227916 -0.00205869)
(0.0654835 0.000264866 -0.00215299)
(0.0654851 0.000292167 -0.00210721)
(0.0791026 0.000458659 -0.002436)
(0.0791288 0.000436822 -0.00215897)
(0.0791459 0.000379815 -0.0019051)
(0.0790037 0.000293637 -0.00171205)
(0.0787968 0.000192426 -0.00158596)
(0.0784077 8.66057e-05 -0.00151247)
(0.0779691 -9.02775e-06 -0.00147849)
(0.0773987 -8.41366e-05 -0.00145333)
(0.0768407 -0.000135045 -0.00141893)
(0.0762702 -0.00015982 -0.00136913)
(0.075791 -0.000164087 -0.00129622)
(0.0753646 -0.000142216 -0.00120232)
(0.0750728 -0.0001036 -0.00109595)
(0.0748328 -4.91656e-05 -0.00099165)
(0.0747362 6.07827e-06 -0.000905763)
(0.0746596 6.06585e-05 -0.000838467)
(0.0747074 0.000111078 -0.000803376)
(0.0747217 0.000153583 -0.000799048)
(0.0748173 0.000184835 -0.000813458)
(0.074848 0.000196587 -0.000842668)
(0.0749134 0.000182758 -0.000855376)
(0.0749071 0.00014873 -0.000828275)
(0.0749143 9.50136e-05 -0.000757657)
(0.0748292 4.34388e-05 -0.000642773)
(0.0747601 -1.88764e-06 -0.000521917)
(0.0745906 -3.50648e-05 -0.000417357)
(0.074478 -5.64589e-05 -0.000371648)
(0.0742974 -6.03929e-05 -0.000391452)
(0.0742279 -5.9524e-05 -0.000462495)
(0.0741316 -5.10433e-05 -0.000573752)
(0.0741778 -3.2685e-05 -0.000711006)
(0.0742204 -1.35048e-06 -0.000855067)
(0.0743955 4.5978e-05 -0.000998672)
(0.0745934 0.0001043 -0.00113695)
(0.0748913 0.000167605 -0.00126126)
(0.0752002 0.000219079 -0.00135933)
(0.0756093 0.000248064 -0.00143628)
(0.0759703 0.000249946 -0.00148813)
(0.0764152 0.000225328 -0.00152402)
(0.0767611 0.000192327 -0.0015386)
(0.0771648 0.000159222 -0.00153353)
(0.0774748 0.000135243 -0.00152877)
(0.0778191 0.000125083 -0.00154525)
(0.0780719 0.00013195 -0.00161223)
(0.0783369 0.000157752 -0.00174622)
(0.0784946 0.000214569 -0.00194016)
(0.078676 0.000302279 -0.00218606)
(0.0787895 0.000381392 -0.00244222)
(0.0789355 0.000433834 -0.00261983)
(0.0790013 0.000457847 -0.00262166)
(0.0924562 0.000687335 -0.00302519)
(0.0926339 0.000649331 -0.00275296)
(0.0927564 0.00058318 -0.00247808)
(0.0926646 0.000495889 -0.00225784)
(0.0924482 0.000392243 -0.0021093)
(0.0919581 0.000269095 -0.00200978)
(0.0913084 0.000137278 -0.00194394)
(0.0904271 1.55596e-05 -0.00188078)
(0.0894665 -8.86971e-05 -0.00179398)
(0.0884543 -0.000162949 -0.00167881)
(0.0875424 -0.000208574 -0.00152963)
(0.0867281 -0.000214535 -0.00135476)
(0.0861369 -0.000188875 -0.00117325)
(0.0856848 -0.000132117 -0.00101041)
(0.0854885 -6.33569e-05 -0.00089152)
(0.0853892 1.32988e-05 -0.000816968)
(0.0854997 9.1387e-05 -0.000793741)
(0.0856222 0.000167973 -0.000826611)
(0.0858622 0.000234072 -0.000886563)
(0.0860508 0.000277162 -0.000955588)
(0.0862739 0.000282152 -0.000990322)
(0.0864016 0.00024984 -0.000945644)
(0.0865301 0.000181514 -0.000818436)
(0.0865129 0.000101736 -0.000608773)
(0.0864825 2.12027e-05 -0.000375986)
(0.0862929 -4.77423e-05 -0.000164318)
(0.086124 -0.000103557 -2.68594e-05)
(0.0858373 -0.00013693 1.46245e-05)
(0.0856396 -0.000161175 -2.43328e-05)
(0.085378 -0.00017375 -0.000118463)
(0.0852626 -0.000172777 -0.000250737)
(0.0851507 -0.000151023 -0.000403325)
(0.0852042 -0.000105817 -0.000557901)
(0.0853187 -3.74406e-05 -0.000712953)
(0.0855941 4.78232e-05 -0.000862643)
(0.085902 0.000122855 -0.000985834)
(0.0863694 0.000175007 -0.00109084)
(0.0868101 0.000193882 -0.00117732)
(0.0873806 0.000177761 -0.00125079)
(0.0878702 0.000152087 -0.00131024)
(0.0884444 0.000127284 -0.00134976)
(0.0889295 0.000115133 -0.00138417)
(0.0894595 0.000117078 -0.00143808)
(0.0898855 0.000135747 -0.00153956)
(0.0903347 0.000176347 -0.00171762)
(0.0906748 0.000257652 -0.0019709)
(0.0910658 0.000393482 -0.00230913)
(0.0914167 0.000535044 -0.00269749)
(0.0918306 0.00064185 -0.00302517)
(0.0921464 0.000691844 -0.00315049)
(0.104461 0.000906613 -0.00343771)
(0.105048 0.000873349 -0.00325086)
(0.10552 0.000810612 -0.00301796)
(0.105727 0.000743688 -0.00281931)
(0.105763 0.000672812 -0.00269606)
(0.10547 0.000574434 -0.00262517)
(0.10489 0.000438972 -0.00257983)
(0.103917 0.000287969 -0.00253073)
(0.102659 0.000131057 -0.00243878)
(0.10116 -7.79704e-06 -0.0022886)
(0.0996313 -0.000121701 -0.00206556)
(0.0981425 -0.000191085 -0.00177702)
(0.0969075 -0.00021887 -0.00145716)
(0.0958893 -0.000200588 -0.00115398)
(0.0952624 -0.000154421 -0.000915908)
(0.0948672 -8.25577e-05 -0.00076774)
(0.0948271 7.04206e-06 -0.000714972)
(0.0949218 0.000115531 -0.00077001)
(0.095243 0.00023079 -0.000901286)
(0.0955875 0.000329124 -0.00106251)
(0.0960299 0.000384303 -0.00119021)
(0.09639 0.000380591 -0.00119936)
(0.0967623 0.000314266 -0.00106649)
(0.0969548 0.000212004 -0.000781438)
(0.0970944 9.09538e-05 -0.000414868)
(0.0970151 -2.34964e-05 -4.44665e-05)
(0.0968965 -0.000124696 0.000248573)
(0.0965809 -0.000199052 0.000421968)
(0.0962898 -0.000256695 0.000470718)
(0.0958528 -0.000298776 0.000422925)
(0.095492 -0.000329609 0.000320875)
(0.0950828 -0.000335655 0.000180589)
(0.0948299 -0.000311445 3.55899e-05)
(0.0946419 -0.000252096 -0.000101602)
(0.0946926 -0.000157799 -0.000238622)
(0.094816 -6.74673e-05 -0.000350459)
(0.0951694 3.2041e-06 -0.000440877)
(0.0955336 3.55777e-05 -0.00051936)
(0.0960839 1.90133e-05 -0.000590071)
(0.0966058 -1.42718e-05 -0.000656686)
(0.0972863 -4.43611e-05 -0.000715528)
(0.09794 -4.97937e-05 -0.00077545)
(0.0987131 -2.63006e-05 -0.00086523)
(0.099415 2.25203e-05 -0.00101295)
(0.100166 9.12825e-05 -0.00125214)
(0.100806 0.000192523 -0.00159189)
(0.101497 0.000366069 -0.00204317)
(0.102168 0.000569007 -0.00258029)
(0.102958 0.000753461 -0.00309359)
(0.103707 0.000874366 -0.00341285)
(0.113568 0.000917938 -0.00328408)
(0.114743 0.000928861 -0.0032501)
(0.115786 0.000902743 -0.00314547)
(0.116545 0.000888284 -0.00305401)
(0.117114 0.000888985 -0.00302259)
(0.117395 0.000868517 -0.0030423)
(0.117387 0.000793234 -0.00307907)
(0.116918 0.000673157 -0.00311428)
(0.11596 0.000514409 -0.00311093)
(0.114457 0.000346396 -0.00304158)
(0.112588 0.000182509 -0.00286372)
(0.110473 5.10566e-05 -0.00255064)
(0.108443 -4.60558e-05 -0.00212393)
(0.106565 -9.94535e-05 -0.0016499)
(0.105121 -0.000123925 -0.00120914)
(0.104008 -0.000115907 -0.000877176)
(0.1034 -6.98112e-05 -0.000695645)
(0.103085 2.62083e-05 -0.000690369)
(0.103176 0.000169299 -0.000850953)
(0.103449 0.000324647 -0.00111294)
(0.103972 0.000452189 -0.00138733)
(0.104526 0.000511028 -0.00154215)
(0.105169 0.00047645 -0.00150945)
(0.105665 0.000371865 -0.00124468)
(0.106088 0.000215057 -0.000803969)
(0.106256 4.84523e-05 -0.000281184)
(0.106333 -0.000107723 0.000208183)
(0.106151 -0.000227938 0.000589265)
(0.105924 -0.000318933 0.00082429)
(0.105473 -0.000385099 0.000896181)
(0.104985 -0.00044163 0.000859159)
(0.104301 -0.000480188 0.000746923)
(0.10367 -0.0004905 0.00060743)
(0.103002 -0.000464496 0.000492803)
(0.102582 -0.00038558 0.000398972)
(0.102261 -0.000292833 0.000338634)
(0.102238 -0.000208414 0.000307385)
(0.102271 -0.000164703 0.000288867)
(0.102533 -0.000189486 0.000275719)
(0.102801 -0.000254809 0.000266936)
(0.103296 -0.000333454 0.000260987)
(0.103861 -0.000380876 0.000245287)
(0.104694 -0.000374075 0.000185131)
(0.105601 -0.000311124 4.14474e-05)
(0.106678 -0.000205743 -0.00022577)
(0.10771 -6.45194e-05 -0.00063365)
(0.108802 0.000135092 -0.00119481)
(0.109869 0.000379618 -0.00187949)
(0.111059 0.000624219 -0.0025678)
(0.112276 0.000818304 -0.00307611)
(0.1186 0.00056303 -0.0023589)
(0.120251 0.000623647 -0.00242416)
(0.121876 0.000658331 -0.00244822)
(0.123307 0.000730754 -0.00253431)
(0.124553 0.000838788 -0.0026928)
(0.125566 0.000928451 -0.00289006)
(0.126387 0.000949023 -0.00306409)
(0.126898 0.000904925 -0.00320155)
(0.12699 0.000808684 -0.00330421)
(0.126416 0.000698147 -0.00338206)
(0.125144 0.00058268 -0.00340177)
(0.123164 0.000477879 -0.00328528)
(0.120844 0.000376106 -0.00297711)
(0.118345 0.000282206 -0.00249403)
(0.116093 0.000184922 -0.00191237)
(0.114082 9.38084e-05 -0.00134793)
(0.112579 3.44928e-05 -0.000926574)
(0.111439 3.99675e-05 -0.000729909)
(0.110838 0.000138045 -0.00080157)
(0.11061 0.000304054 -0.00109232)
(0.110831 0.000487628 -0.00150055)
(0.111298 0.000625146 -0.00184932)
(0.112011 0.000653872 -0.00201476)
(0.112712 0.000579195 -0.00190264)
(0.113384 0.000406768 -0.0015281)
(0.113802 0.000188897 -0.000972504)
(0.114096 -3.63614e-05 -0.000351128)
(0.1141 -0.000219518 0.000237778)
(0.114033 -0.000355818 0.000737243)
(0.11373 -0.000442043 0.00106709)
(0.113388 -0.000499065 0.00121318)
(0.112742 -0.000541099 0.00119778)
(0.112017 -0.000564456 0.00106954)
(0.111049 -0.00056908 0.000929854)
(0.110186 -0.000523288 0.000830645)
(0.109342 -0.000447351 0.000799913)
(0.108798 -0.000362521 0.000827629)
(0.108333 -0.000306861 0.000887406)
(0.108092 -0.000332889 0.000963579)
(0.107824 -0.00043836 0.00106012)
(0.10774 -0.000602154 0.00118566)
(0.107727 -0.000761175 0.00132112)
(0.108088 -0.000860382 0.00141245)
(0.108737 -0.000859923 0.00138979)
(0.109803 -0.000760347 0.00118882)
(0.111066 -0.000582129 0.000777516)
(0.112493 -0.000359441 0.00016083)
(0.113917 -9.11009e-05 -0.000624393)
(0.115422 0.000184224 -0.00142881)
(0.116954 0.000419055 -0.0020498)
(0.11971 -0.000141316 -0.000918636)
(0.121379 -7.82193e-05 -0.000960787)
(0.123194 -1.61309e-05 -0.000963224)
(0.125096 0.000138761 -0.00111032)
(0.127009 0.000375054 -0.00144415)
(0.128792 0.000609812 -0.00189893)
(0.130397 0.000755023 -0.00234476)
(0.13175 0.000781828 -0.00267678)
(0.132862 0.000715427 -0.00287163)
(0.133531 0.000636615 -0.00298227)
(0.133627 0.000603094 -0.00308843)
(0.132883 0.000638354 -0.00319152)
(0.131462 0.000708522 -0.00322075)
(0.129425 0.000762343 -0.0030752)
(0.127226 0.000738488 -0.00270253)
(0.124928 0.000624979 -0.00212809)
(0.122855 0.000463445 -0.00151179)
(0.120964 0.000322603 -0.00103204)
(0.119495 0.000281893 -0.00085633)
(0.118446 0.000367564 -0.00102417)
(0.117963 0.000542372 -0.00146639)
(0.117955 0.000732092 -0.00198532)
(0.118392 0.000836697 -0.00238686)
(0.119012 0.000827696 -0.00251543)
(0.11971 0.0006824 -0.00233566)
(0.120203 0.00044873 -0.00190757)
(0.120563 0.000168577 -0.00132947)
(0.120612 -9.17208e-05 -0.000681254)
(0.120588 -0.000308886 -2.6866e-06)
(0.120322 -0.000457886 0.000628557)
(0.1201 -0.000541718 0.00111118)
(0.119629 -0.000585289 0.00138049)
(0.119125 -0.000589778 0.00141303)
(0.11833 -0.000577291 0.00129312)
(0.117532 -0.00053021 0.0011296)
(0.116633 -0.000456849 0.00101677)
(0.115928 -0.000367889 0.000989786)
(0.115244 -0.000291454 0.00103041)
(0.114697 -0.000290027 0.00112366)
(0.113989 -0.000394143 0.00128153)
(0.113235 -0.000617171 0.00153426)
(0.112322 -0.00091102 0.00188045)
(0.111609 -0.00120059 0.00225228)
(0.111243 -0.00139278 0.00251905)
(0.111506 -0.00143853 0.00255777)
(0.112323 -0.00132328 0.00228093)
(0.113581 -0.00110429 0.00170775)
(0.115036 -0.000817283 0.000903643)
(0.116585 -0.000522241 5.2881e-05)
(0.118124 -0.000282221 -0.000606406)
(0.119072 -0.00101331 0.000568987)
(0.120278 -0.00101865 0.000547384)
(0.121658 -0.00101636 0.000638782)
(0.123357 -0.000871291 0.000613642)
(0.125397 -0.000565793 0.000333475)
(0.127638 -0.000184714 -0.000199821)
(0.129904 0.000137028 -0.000897813)
(0.131951 0.0003129 -0.00157007)
(0.133727 0.000307432 -0.0020686)
(0.135061 0.000193606 -0.00232925)
(0.135966 0.000104992 -0.00241435)
(0.136237 0.000154894 -0.00242897)
(0.136016 0.000357463 -0.00248218)
(0.135268 0.000656538 -0.00259189)
(0.134298 0.000935215 -0.00266998)
(0.13307 0.00107683 -0.00253618)
(0.131714 0.00103865 -0.00214032)
(0.130159 0.000871553 -0.00158259)
(0.128561 0.000688265 -0.00112119)
(0.127079 0.000602576 -0.000982241)
(0.125968 0.000660761 -0.00124756)
(0.125371 0.000824482 -0.00179893)
(0.125351 0.00098355 -0.0024057)
(0.125684 0.00106684 -0.0028151)
(0.126222 0.00100404 -0.00290774)
(0.126584 0.000814626 -0.00270341)
(0.126802 0.000532247 -0.00231216)
(0.126652 0.000227163 -0.00180397)
(0.126439 -5.91551e-05 -0.00119)
(0.125983 -0.000293442 -0.000463102)
(0.125629 -0.000450259 0.000292926)
(0.125093 -0.000546493 0.000950324)
(0.124601 -0.000585694 0.00136946)
(0.123925 -0.000589787 0.0015156)
(0.123324 -0.000557314 0.00145728)
(0.122753 -0.000485375 0.00129671)
(0.122466 -0.000361004 0.00113123)
(0.122294 -0.000197303 0.000992129)
(0.122239 -7.58341e-05 0.000899901)
(0.121898 -6.63502e-05 0.00090499)
(0.121183 -0.000228746 0.00108634)
(0.119885 -0.000553823 0.0014978)
(0.118238 -0.000995679 0.00211443)
(0.11654 -0.00143014 0.00276499)
(0.11527 -0.00175214 0.00324159)
(0.114708 -0.00186095 0.00333512)
(0.114889 -0.00177513 0.00301645)
(0.115647 -0.00154819 0.00235194)
(0.116724 -0.00128787 0.00155735)
(0.117904 -0.00109382 0.000895964)
(0.120145 -0.00162526 0.00182594)
(0.120671 -0.00177303 0.0017222)
(0.12122 -0.00194018 0.0018032)
(0.122024 -0.00196962 0.00190812)
(0.123329 -0.00175989 0.00182501)
(0.125177 -0.00135342 0.00146774)
(0.127469 -0.000898574 0.000788372)
(0.129829 -0.000537777 -7.34689e-05)
(0.132025 -0.000371515 -0.000927236)
(0.133726 -0.000399527 -0.00157486)
(0.134911 -0.000519547 -0.00191297)
(0.135454 -0.000575885 -0.00195947)
(0.135574 -0.000457745 -0.00186226)
(0.135384 -0.000131896 -0.00181301)
(0.135196 0.000321654 -0.0019283)
(0.135079 0.000762297 -0.00210362)
(0.135021 0.00105502 -0.00216676)
(0.134839 0.00114633 -0.0019644)
(0.134366 0.0010671 -0.00156357)
(0.133616 0.000923369 -0.00120252)
(0.132777 0.000837152 -0.00112081)
(0.132138 0.000861425 -0.0013977)
(0.13199 0.000965722 -0.00194167)
(0.132258 0.00109576 -0.00249076)
(0.132865 0.00115124 -0.00284652)
(0.133296 0.00109481 -0.00292718)
(0.133495 0.000919675 -0.00281399)
(0.13311 0.000662159 -0.00257442)
(0.132503 0.000369158 -0.00222834)
(0.131598 7.59091e-05 -0.00170043)
(0.13085 -0.000157107 -0.00097966)
(0.130084 -0.000314101 -0.000159158)
(0.129443 -0.000392388 0.000603735)
(0.128668 -0.000426992 0.00115028)
(0.127877 -0.000452875 0.00145326)
(0.127106 -0.0004844 0.00153028)
(0.126712 -0.000477804 0.00144484)
(0.126783 -0.000362596 0.00122852)
(0.127431 -0.000149228 0.000902103)
(0.128275 0.000104423 0.000553053)
(0.128918 0.000251985 0.00033207)
(0.128806 0.000186536 0.000408072)
(0.127725 -0.000159735 0.000901132)
(0.125785 -0.000697969 0.00172089)
(0.123439 -0.00127556 0.00265783)
(0.121312 -0.00168041 0.00333828)
(0.119814 -0.0018556 0.00358549)
(0.119155 -0.00181666 0.0033453)
(0.119165 -0.00168753 0.00279555)
(0.119602 -0.00159406 0.00220701)
(0.125139 -0.0016448 0.00266481)
(0.125014 -0.00193087 0.00250239)
(0.124769 -0.00228584 0.00249763)
(0.12447 -0.00259421 0.00262831)
(0.12445 -0.00267051 0.00269762)
(0.125012 -0.00246843 0.00260039)
(0.126347 -0.00204766 0.00216872)
(0.128242 -0.00156856 0.00140915)
(0.130424 -0.00119763 0.000456867)
(0.132406 -0.00104525 -0.000483861)
(0.133915 -0.00108749 -0.00118019)
(0.134713 -0.00117724 -0.00153284)
(0.134875 -0.00117007 -0.00158685)
(0.134623 -0.000930331 -0.00151621)
(0.134321 -0.000494935 -0.00154723)
(0.134274 3.46031e-05 -0.0017184)
(0.134546 0.000512423 -0.00196099)
(0.135058 0.000829083 -0.00206186)
(0.13552 0.000966504 -0.00191444)
(0.135746 0.000965953 -0.00162387)
(0.135708 0.000919243 -0.00141971)
(0.135536 0.000876897 -0.00145057)
(0.135626 0.000864368 -0.00175631)
(0.136049 0.000904099 -0.00214685)
(0.136991 0.000949993 -0.00242945)
(0.137966 0.000975622 -0.00249812)
(0.138822 0.00095392 -0.00245627)
(0.13895 0.000853489 -0.00241691)
(0.138478 0.000668732 -0.00243311)
(0.137344 0.000422906 -0.00237377)
(0.136084 0.000166305 -0.00204601)
(0.134838 -3.57063e-05 -0.0014235)
(0.133846 -0.000146927 -0.000595515)
(0.132966 -0.000165195 0.000194896)
(0.132113 -0.000143251 0.000818513)
(0.131168 -0.000162858 0.00121281)
(0.130289 -0.000234886 0.00138133)
(0.129659 -0.000302191 0.00134409)
(0.129646 -0.000299296 0.00106982)
(0.130381 -0.000145737 0.000596288)
(0.131798 9.56263e-05 4.06557e-05)
(0.133457 0.00034045 -0.000430869)
(0.134682 0.000439043 -0.00055267)
(0.134877 0.000299677 -0.0001826)
(0.133763 -0.000114064 0.000727537)
(0.131695 -0.000641761 0.00182662)
(0.129298 -0.00107344 0.0027637)
(0.127284 -0.00130852 0.00325071)
(0.125973 -0.00140996 0.0032534)
(0.125352 -0.00149009 0.00297355)
(0.133712 -0.0010296 0.00271447)
(0.133012 -0.00140937 0.00263227)
(0.132212 -0.00186882 0.00258367)
(0.13112 -0.00238454 0.00270724)
(0.129889 -0.00279156 0.00288387)
(0.128884 -0.00296811 0.00302532)
(0.128583 -0.00284533 0.00292264)
(0.129131 -0.00247744 0.00245825)
(0.13046 -0.00203948 0.00168298)
(0.132209 -0.00170981 0.000734015)
(0.133916 -0.00158686 -9.86772e-05)
(0.135146 -0.00159803 -0.000669726)
(0.135624 -0.00161944 -0.000963016)
(0.135448 -0.00145378 -0.00107915)
(0.134924 -0.00105724 -0.00124463)
(0.134518 -0.000512992 -0.00149638)
(0.134422 4.15062e-05 -0.00184867)
(0.134725 0.000467123 -0.00213499)
(0.13523 0.000714976 -0.00219026)
(0.135714 0.000808463 -0.00202331)
(0.136086 0.000849442 -0.0018399)
(0.136233 0.000862287 -0.00180576)
(0.136456 0.000846582 -0.0020188)
(0.136802 0.000817373 -0.00235687)
(0.137674 0.000757915 -0.00261956)
(0.138859 0.000689007 -0.00261709)
(0.140333 0.000642576 -0.0023982)
(0.14143 0.000602498 -0.00212265)
(0.141872 0.000521827 -0.00199947)
(0.141362 0.000404464 -0.00211925)
(0.140241 0.000235204 -0.0022315)
(0.138867 7.78787e-05 -0.00212335)
(0.137617 -3.60387e-05 -0.0016273)
(0.136576 -6.58497e-05 -0.000880471)
(0.135642 4.55194e-06 -0.000101629)
(0.134681 9.73198e-05 0.000538234)
(0.133672 0.000171562 0.000917082)
(0.132683 0.000173966 0.00104122)
(0.13195 0.000102648 0.000882861)
(0.131766 4.99664e-05 0.000451613)
(0.13231 1.80574e-05 -0.000127058)
(0.133655 6.91997e-05 -0.000766672)
(0.135534 0.000175145 -0.00128396)
(0.137527 0.000317678 -0.00156702)
(0.138989 0.000356803 -0.00134123)
(0.13948 0.000234612 -0.000562566)
(0.138851 3.69587e-06 0.000594628)
(0.137471 -0.000252965 0.00170373)
(0.135905 -0.000481105 0.00242611)
(0.134617 -0.000739114 0.00272262)
(0.14138 -0.000436112 0.0020974)
(0.140872 -0.00077841 0.0022905)
(0.140313 -0.00112783 0.0022484)
(0.139402 -0.00155832 0.00224888)
(0.137967 -0.00205067 0.00237323)
(0.136156 -0.00249619 0.00262704)
(0.134466 -0.00275277 0.00282837)
(0.133386 -0.00272798 0.0027371)
(0.133179 -0.00248567 0.00230601)
(0.13388 -0.00216431 0.00155615)
(0.13512 -0.00196056 0.000789433)
(0.136443 -0.00191735 0.00021108)