/*--------------------------------*- C++ -*----------------------------------*\
| =========                 |                                                 |
| \\      /  F ield         | OpenFOAM: The Open Source CFD Toolbox           |
|  \\    /   O peration     | Version:  2.3.0                                 |
|   \\  /    A nd           | Web:      www.OpenFOAM.org                      |
|    \\/     M anipulation  |                                                 |
\*---------------------------------------------------------------------------*/
FoamFile
{
    version     2.0;
    format      ascii;
    class       volVectorField;
    location    "300";
    object      UMean;
}
// * * * * * * * * * * * * * * * * * * * * * * * * * * * * * * * * * * * * * //

dimensions      [0 1 -1 0 0 0 0];

internalField   nonuniform List<vector> 
90000
(
(0.00827777 -3.21e-07 -8.89268e-05)
(0.00827973 -3.14575e-08 -7.87946e-05)
(0.00827847 1.50532e-07 -7.81843e-05)
(0.00828679 8.03109e-08 -8.65477e-05)
(0.00829181 6.39037e-08 -8.83347e-05)
(0.00828989 4.5285e-07 -8.70611e-05)
(0.00828997 2.11756e-07 -8.10273e-05)
(0.00828973 -5.68588e-08 -8.30628e-05)
(0.00828678 3.97845e-07 -8.9955e-05)
(0.00827834 9.61106e-07 -9.65661e-05)
(0.00827433 8.3849e-07 -0.000100047)
(0.00826487 1.40515e-06 -0.000102429)
(0.00826236 1.295e-06 -0.000107683)
(0.00826314 9.54582e-07 -0.000111131)
(0.00826294 1.39935e-06 -0.000109241)
(0.00827209 2.67686e-07 -9.94666e-05)
(0.00826678 1.06078e-07 -8.93478e-05)
(0.00827468 -8.23789e-09 -8.84397e-05)
(0.00827581 -1.05479e-07 -8.17122e-05)
(0.00828121 -1.04296e-07 -7.78758e-05)
(0.00828895 2.27315e-07 -6.90329e-05)
(0.00829182 5.64758e-08 -6.41683e-05)
(0.00828786 -2.15416e-07 -6.80699e-05)
(0.00829413 -4.82818e-07 -7.17122e-05)
(0.00829861 -6.90545e-07 -7.13287e-05)
(0.00830593 9.17113e-08 -7.6073e-05)
(0.00830523 1.27287e-07 -8.62177e-05)
(0.00829368 4.91642e-07 -9.78873e-05)
(0.00828815 8.96075e-07 -0.000112687)
(0.0082885 3.9061e-07 -0.000115713)
(0.00826442 8.30819e-07 -0.000125698)
(0.00827404 1.26379e-06 -0.000127686)
(0.00828728 4.0451e-07 -0.000125876)
(0.00829303 1.35116e-08 -0.000115194)
(0.00830099 1.82616e-07 -0.000101883)
(0.00830055 1.73651e-07 -8.3583e-05)
(0.0082962 1.43293e-07 -7.67383e-05)
(0.00827935 -5.13952e-07 -7.05887e-05)
(0.0082767 -1.13535e-06 -7.8171e-05)
(0.00827042 -6.7716e-08 -7.99151e-05)
(0.00824573 -1.62288e-06 -7.79768e-05)
(0.00831751 -1.83305e-06 -7.16517e-05)
(0.00833146 -5.14015e-07 -8.28277e-05)
(0.00834421 1.32773e-07 -0.000100109)
(0.00834716 2.03435e-07 -0.000116796)
(0.0083566 2.91197e-07 -0.000120376)
(0.00835093 3.54778e-07 -0.000120904)
(0.0083478 6.51274e-07 -0.000116614)
(0.00831997 1.12951e-06 -0.000112875)
(0.00832561 6.70889e-07 -0.000100464)
(0.0250317 -1.25711e-06 -0.000238106)
(0.0249972 -4.71647e-06 -0.000219296)
(0.024984 -6.019e-06 -0.000208859)
(0.0249974 -6.67335e-06 -0.000208284)
(0.0250157 -7.17111e-06 -0.000207368)
(0.0250159 -6.57365e-06 -0.000207041)
(0.0250295 -6.98503e-06 -0.000197174)
(0.0250305 -6.877e-06 -0.000202437)
(0.0250261 -6.13834e-06 -0.00021661)
(0.0250198 -4.45587e-06 -0.000235516)
(0.0250127 -4.55535e-06 -0.000248905)
(0.0249937 -4.3934e-06 -0.000256152)
(0.0249961 -4.9191e-06 -0.00027238)
(0.0249982 -5.11344e-06 -0.000284033)
(0.0250052 -5.0896e-06 -0.000287866)
(0.0250365 -5.66997e-06 -0.000274634)
(0.0250147 -5.56056e-06 -0.000255373)
(0.0250309 -6.46033e-06 -0.000243002)
(0.0250312 -5.91588e-06 -0.000219493)
(0.0250405 -6.4455e-06 -0.000212028)
(0.0250517 -5.98251e-06 -0.000195878)
(0.0250748 -4.8036e-06 -0.000175985)
(0.0250667 -5.41399e-06 -0.000176141)
(0.0250858 -7.43526e-06 -0.000173883)
(0.0250891 -6.8552e-06 -0.000169988)
(0.0251124 -7.25229e-06 -0.00017855)
(0.0251264 -4.97358e-06 -0.000200646)
(0.0251087 -3.2056e-06 -0.000216505)
(0.0251062 -4.38085e-06 -0.000247389)
(0.0251068 -4.28833e-06 -0.000253352)
(0.025029 -5.99699e-06 -0.000276401)
(0.0250776 -9.31062e-06 -0.000285973)
(0.0251197 -8.78015e-06 -0.000284146)
(0.0251189 -8.08487e-06 -0.000268482)
(0.0251332 -6.52935e-06 -0.000252481)
(0.0251293 -5.52838e-06 -0.000221642)
(0.025128 -4.06624e-06 -0.00020914)
(0.0250785 -3.89676e-06 -0.000193246)
(0.0250535 -5.55176e-06 -0.000202019)
(0.0250173 -4.24574e-06 -0.000197659)
(0.0249855 -9.41593e-06 -0.000207036)
(0.0250022 -1.09433e-05 -0.000196754)
(0.0249934 -6.6723e-06 -0.00021052)
(0.0250213 -4.82597e-06 -0.000237501)
(0.0250289 -4.15982e-06 -0.0002743)
(0.025078 -3.92749e-06 -0.000279955)
(0.0250892 -3.54785e-06 -0.000288154)
(0.0251207 -6.65835e-07 -0.000277999)
(0.0250929 -2.84698e-06 -0.000276441)
(0.0251366 1.46085e-06 -0.000253845)
(0.0422269 -1.44498e-05 -0.000357658)
(0.0421851 -2.00675e-05 -0.000349475)
(0.0421787 -2.41389e-05 -0.000341839)
(0.0421898 -2.63021e-05 -0.000330472)
(0.0422138 -2.61822e-05 -0.000328005)
(0.0422082 -2.50116e-05 -0.000322567)
(0.0422124 -2.59781e-05 -0.000309192)
(0.0422121 -2.51598e-05 -0.000310174)
(0.0421727 -2.31623e-05 -0.000328086)
(0.0421634 -2.00232e-05 -0.000351896)
(0.0421298 -1.87235e-05 -0.000369071)
(0.0421173 -1.69273e-05 -0.000389884)
(0.0421248 -1.6926e-05 -0.000406687)
(0.0421194 -1.31174e-05 -0.000415165)
(0.0421578 -1.98101e-05 -0.000430966)
(0.0422126 -1.86091e-05 -0.000416813)
(0.04221 -1.65985e-05 -0.0004047)
(0.0422437 -1.85009e-05 -0.000379659)
(0.042242 -1.843e-05 -0.000357116)
(0.0422757 -1.90341e-05 -0.00032795)
(0.0422726 -2.09031e-05 -0.000302069)
(0.0423303 -2.4859e-05 -0.000272472)
(0.0423338 -2.71226e-05 -0.000264228)
(0.0423469 -2.9597e-05 -0.000245106)
(0.0423445 -2.7491e-05 -0.000230382)
(0.042343 -2.99129e-05 -0.000234439)
(0.0423484 -2.64467e-05 -0.000256219)
(0.0423315 -2.17775e-05 -0.000281864)
(0.0423198 -2.15577e-05 -0.000307131)
(0.042273 -1.64983e-05 -0.000315352)
(0.0421958 -1.88656e-05 -0.000343819)
(0.0421381 -2.72261e-05 -0.000351496)
(0.042137 -2.56138e-05 -0.000348976)
(0.0420937 -2.40047e-05 -0.000338403)
(0.042107 -2.29423e-05 -0.000339559)
(0.0421012 -2.13894e-05 -0.00031767)
(0.0421203 -1.86804e-05 -0.00031515)
(0.0420917 -1.83205e-05 -0.000297624)
(0.0420936 -1.70381e-05 -0.000309508)
(0.042083 -2.03947e-05 -0.000293463)
(0.0421062 -2.48313e-05 -0.00032125)
(0.0421125 -2.63041e-05 -0.000310036)
(0.0421185 -2.59618e-05 -0.000347419)
(0.0421751 -2.46131e-05 -0.000369009)
(0.0421912 -2.7425e-05 -0.000410342)
(0.0422607 -2.7969e-05 -0.000391513)
(0.0422711 -2.85562e-05 -0.000401797)
(0.042318 -2.11386e-05 -0.000380154)
(0.0422804 -2.07911e-05 -0.000392034)
(0.042296 -9.99357e-06 -0.000362012)
(0.0590436 -3.84596e-05 -0.0005006)
(0.0589813 -4.73201e-05 -0.000496034)
(0.0589547 -5.52107e-05 -0.000509219)
(0.0589462 -5.75322e-05 -0.000485674)
(0.0589579 -5.6971e-05 -0.00048679)
(0.0589613 -5.11042e-05 -0.00045828)
(0.0589668 -5.24748e-05 -0.000441998)
(0.0589955 -4.86216e-05 -0.000422876)
(0.0589705 -4.77094e-05 -0.0004387)
(0.0590135 -4.44033e-05 -0.000452041)
(0.0589778 -4.60177e-05 -0.000485204)
(0.0590143 -5.17417e-05 -0.000493095)
(0.0590579 -5.38923e-05 -0.000526648)
(0.0590645 -4.99469e-05 -0.000530789)
(0.0590815 -5.62136e-05 -0.000564188)
(0.0591011 -5.21458e-05 -0.000533179)
(0.0590623 -4.55461e-05 -0.000532055)
(0.0590462 -4.23584e-05 -0.000490769)
(0.0590062 -4.0357e-05 -0.000490484)
(0.0589788 -3.92319e-05 -0.000425595)
(0.0589715 -3.94682e-05 -0.000396063)
(0.0589038 -4.17252e-05 -0.000342433)
(0.0588439 -4.45814e-05 -0.000331822)
(0.0587962 -5.09237e-05 -0.000294526)
(0.0587882 -4.69477e-05 -0.000286459)
(0.058764 -5.38202e-05 -0.000278416)
(0.0587872 -5.16038e-05 -0.000311267)
(0.0588033 -4.90879e-05 -0.000321008)
(0.0588263 -4.74003e-05 -0.000334133)
(0.058826 -4.542e-05 -0.000330638)
(0.0588082 -4.64795e-05 -0.000363565)
(0.0587986 -5.79581e-05 -0.000364496)
(0.058848 -5.70554e-05 -0.000366104)
(0.0588269 -5.47794e-05 -0.000354621)
(0.0588783 -5.34658e-05 -0.000371616)
(0.0588791 -5.21516e-05 -0.000380897)
(0.0589035 -4.82315e-05 -0.000399163)
(0.0588905 -4.78627e-05 -0.000382012)
(0.0588917 -4.37985e-05 -0.000400084)
(0.0588658 -4.61635e-05 -0.000395509)
(0.0588773 -4.85347e-05 -0.000441819)
(0.0588492 -4.69878e-05 -0.000456416)
(0.0588254 -5.22708e-05 -0.000509287)
(0.0588675 -5.1709e-05 -0.000522993)
(0.0588769 -5.55034e-05 -0.000558943)
(0.058954 -5.61271e-05 -0.000531138)
(0.0589618 -5.71836e-05 -0.000537363)
(0.0590611 -4.89605e-05 -0.000502724)
(0.0590443 -5.06724e-05 -0.000513101)
(0.0591645 -3.47985e-05 -0.000485369)
(0.0745495 -7.3151e-05 -0.000684493)
(0.0745063 -8.48139e-05 -0.00067891)
(0.0745515 -9.74996e-05 -0.000692085)
(0.0745233 -0.000102785 -0.000657274)
(0.0745405 -0.000105975 -0.000666833)
(0.0745174 -9.89143e-05 -0.000615843)
(0.0745132 -9.97013e-05 -0.000607527)
(0.0744817 -9.24058e-05 -0.000558846)
(0.0744758 -8.57849e-05 -0.000571027)
(0.0744449 -7.64065e-05 -0.000563304)
(0.074422 -7.07313e-05 -0.000603974)
(0.0743413 -6.77515e-05 -0.00059436)
(0.0742774 -6.62509e-05 -0.000625948)
(0.0742068 -5.90656e-05 -0.000626048)
(0.0741361 -6.57124e-05 -0.000659449)
(0.0740759 -6.29772e-05 -0.000623748)
(0.0740285 -5.58253e-05 -0.000621532)
(0.0739932 -5.39156e-05 -0.00056394)
(0.0739626 -5.33359e-05 -0.000586005)
(0.0739438 -5.94606e-05 -0.000500066)
(0.0739481 -6.28291e-05 -0.000493785)
(0.0739381 -6.61728e-05 -0.000402362)
(0.0739567 -7.29092e-05 -0.000403463)
(0.0739673 -8.53946e-05 -0.000353505)
(0.0740256 -8.3879e-05 -0.000362465)
(0.0740567 -9.19662e-05 -0.000329403)
(0.0741324 -9.22151e-05 -0.000388167)
(0.0741617 -9.09171e-05 -0.000364174)
(0.0741978 -9.01714e-05 -0.000398281)
(0.0742102 -8.35276e-05 -0.000366145)
(0.0741684 -8.03513e-05 -0.000407697)
(0.0741577 -9.18138e-05 -0.000401088)
(0.0741564 -9.39032e-05 -0.000431793)
(0.0741551 -9.22011e-05 -0.00038463)
(0.0741741 -8.90304e-05 -0.000416491)
(0.0741673 -8.55949e-05 -0.000425338)
(0.074179 -8.09793e-05 -0.000470477)
(0.0741947 -7.91419e-05 -0.000459062)
(0.0742397 -7.45796e-05 -0.000489224)
(0.0742868 -7.74852e-05 -0.000500024)
(0.074365 -8.32347e-05 -0.000563951)
(0.0743931 -8.47277e-05 -0.000595862)
(0.074455 -9.63396e-05 -0.000664217)
(0.0744929 -9.98184e-05 -0.000684787)
(0.0745335 -0.000112268 -0.00074466)
(0.0745497 -0.000112153 -0.000730926)
(0.0745773 -0.000118886 -0.000755375)
(0.0745892 -0.000104832 -0.000713027)
(0.0745769 -0.000106762 -0.000719966)
(0.0745956 -8.54015e-05 -0.00068026)
(0.0874542 -0.000116897 -0.000785507)
(0.0874062 -0.000124192 -0.000754591)
(0.0874727 -0.000133368 -0.000771763)
(0.0873708 -0.000130625 -0.000737256)
(0.0874146 -0.000132633 -0.000737261)
(0.0872895 -0.000121498 -0.000715692)
(0.0873353 -0.0001221 -0.000711662)
(0.0872415 -0.000113533 -0.000660514)
(0.0872999 -0.000109828 -0.000677752)
(0.0872353 -0.000100006 -0.000651834)
(0.0872802 -0.000101484 -0.000691918)
(0.0872053 -9.6042e-05 -0.0006714)
(0.0872606 -0.000105133 -0.000710948)
(0.0872237 -9.54283e-05 -0.000691784)
(0.0872635 -0.000105069 -0.000723712)
(0.0872538 -0.000101396 -0.000695774)
(0.0873062 -9.79072e-05 -0.00070167)
(0.0873263 -9.20255e-05 -0.000641001)
(0.0873483 -9.16767e-05 -0.000658791)
(0.0873069 -9.10802e-05 -0.000595891)
(0.0873221 -9.34507e-05 -0.000591307)
(0.0872759 -9.44195e-05 -0.000503831)
(0.0872913 -0.000102287 -0.000512294)
(0.0872172 -0.000115731 -0.000474521)
(0.0872279 -0.000118678 -0.000493095)
(0.0871918 -0.000128801 -0.000465312)
(0.0872339 -0.00012679 -0.000516146)
(0.0872339 -0.00012287 -0.000515756)
(0.0872669 -0.00013073 -0.000546743)
(0.0873391 -0.000126757 -0.000523604)
(0.0873894 -0.000124984 -0.000555743)
(0.0874395 -0.000138705 -0.000552446)
(0.0875389 -0.000142426 -0.000593233)
(0.0875811 -0.000139084 -0.000538991)
(0.0876581 -0.000137063 -0.000545058)
(0.0876536 -0.000133024 -0.000527218)
(0.0876823 -0.000129424 -0.000576026)
(0.0876493 -0.000127432 -0.000568401)
(0.0876986 -0.000122782 -0.000591994)
(0.0876728 -0.000118364 -0.000598667)
(0.0877336 -0.000120066 -0.000654104)
(0.0876803 -0.000117499 -0.000678622)
(0.0877051 -0.000124691 -0.000743257)
(0.0876206 -0.000122813 -0.000770739)
(0.0876236 -0.000127519 -0.000858699)
(0.0874986 -0.000131766 -0.000868708)
(0.0875346 -0.000136123 -0.000909685)
(0.0873886 -0.000130444 -0.000862761)
(0.0874853 -0.000131017 -0.000868099)
(0.0873075 -0.000120606 -0.000796119)
(0.0982989 -0.000135676 -0.000782984)
(0.098135 -0.00013742 -0.000726211)
(0.0981869 -0.00015075 -0.00074853)
(0.0980514 -0.00014824 -0.000718427)
(0.0981764 -0.00015567 -0.000712947)
(0.0981035 -0.000143391 -0.000685682)
(0.098275 -0.000146005 -0.000673924)
(0.0982254 -0.000133429 -0.00063075)
(0.0983646 -0.000129394 -0.000628589)
(0.0982819 -0.000112352 -0.000614019)
(0.0983927 -0.00010667 -0.000636675)
(0.0982745 -9.05459e-05 -0.000621799)
(0.098374 -0.000100131 -0.00065526)
(0.0982495 -8.71274e-05 -0.00064805)
(0.0983067 -9.94521e-05 -0.000683721)
(0.0981614 -9.82248e-05 -0.000667566)
(0.0982221 -0.000103396 -0.000680133)
(0.0981208 -9.61365e-05 -0.000646717)
(0.0981942 -0.000103566 -0.000658126)
(0.0981238 -0.000110208 -0.000608203)
(0.098207 -0.000121175 -0.000629645)
(0.0981561 -0.000125448 -0.000562156)
(0.0982738 -0.000130664 -0.000597771)
(0.0982183 -0.000138282 -0.000560138)
(0.0983282 -0.000146196 -0.000603938)
(0.0982482 -0.000156736 -0.000576008)
(0.0983414 -0.000164768 -0.000637365)
(0.0982913 -0.000159343 -0.000651637)
(0.0983807 -0.000172009 -0.000707924)
(0.0983265 -0.000162401 -0.000678372)
(0.0984137 -0.000158283 -0.000708566)
(0.0983695 -0.000158087 -0.000700148)
(0.0984812 -0.000161192 -0.000726798)
(0.0984408 -0.000149175 -0.000666245)
(0.0984868 -0.000138692 -0.000657181)
(0.0983885 -0.000121716 -0.00061545)
(0.0984012 -0.000121159 -0.000627938)
(0.0983007 -0.000118791 -0.000598307)
(0.0983135 -0.000117856 -0.000634605)
(0.0982614 -0.000117842 -0.000623685)
(0.0982911 -0.000128222 -0.000676918)
(0.0982233 -0.000132032 -0.000680665)
(0.0982138 -0.000145891 -0.000743018)
(0.0981528 -0.000145567 -0.000762174)
(0.0981793 -0.000159179 -0.000869477)
(0.0981577 -0.000163095 -0.000858855)
(0.0982208 -0.000173421 -0.000925659)
(0.0982677 -0.00015829 -0.00086021)
(0.0983344 -0.000161079 -0.000887493)
(0.0982935 -0.000129086 -0.000788819)
(0.107203 -9.52529e-05 -0.000666431)
(0.107056 -8.63959e-05 -0.00062302)
(0.107205 -9.16615e-05 -0.000638213)
(0.107078 -9.3329e-05 -0.000604008)
(0.107226 -9.8675e-05 -0.000603449)
(0.10709 -9.40182e-05 -0.000571518)
(0.107221 -0.000102526 -0.000567995)
(0.107066 -9.30736e-05 -0.000526169)
(0.107204 -9.17337e-05 -0.000542758)
(0.107068 -8.5457e-05 -0.000523101)
(0.107234 -9.21628e-05 -0.000569485)
(0.107171 -8.596e-05 -0.000583405)
(0.107334 -0.000101366 -0.000634888)
(0.107257 -8.09681e-05 -0.000634492)
(0.107385 -9.44444e-05 -0.000674353)
(0.107255 -9.97242e-05 -0.000660072)
(0.107372 -0.000110951 -0.000686668)
(0.107252 -0.000106172 -0.00066073)
(0.107374 -0.000110406 -0.000676371)
(0.107235 -0.000110174 -0.000654543)
(0.107304 -0.000121607 -0.00065947)
(0.107156 -0.000120028 -0.000606356)
(0.107283 -0.000130098 -0.000641368)
(0.107177 -0.000135357 -0.000604323)
(0.107308 -0.00013926 -0.000652036)
(0.10717 -0.000135457 -0.000636373)
(0.107238 -0.000143399 -0.000708223)
(0.107068 -0.00014422 -0.000695882)
(0.107161 -0.0001646 -0.000770343)
(0.107031 -0.000156145 -0.000722781)
(0.107151 -0.000159191 -0.000768076)
(0.10706 -0.000160873 -0.000748897)
(0.107153 -0.000170991 -0.000771449)
(0.107053 -0.000158606 -0.000704951)
(0.107118 -0.00015178 -0.000698206)
(0.107062 -0.000133799 -0.000629948)
(0.107178 -0.000133499 -0.000649349)
(0.107162 -0.000119484 -0.000589845)
(0.107276 -0.000108309 -0.00062908)
(0.107203 -9.54164e-05 -0.000595223)
(0.107241 -9.74916e-05 -0.000651088)
(0.107154 -8.7879e-05 -0.000624469)
(0.107214 -9.18579e-05 -0.000700412)
(0.107154 -8.59922e-05 -0.000689454)
(0.107227 -9.96521e-05 -0.000788792)
(0.107176 -0.0001113 -0.000775374)
(0.107205 -0.000126813 -0.000828547)
(0.107126 -0.000129816 -0.000759886)
(0.107167 -0.000119826 -0.000780822)
(0.107115 -0.000109735 -0.000673334)
(0.114752 -5.55686e-05 -0.000553161)
(0.114604 -6.56007e-05 -0.000522886)
(0.114764 -8.25476e-05 -0.000536257)
(0.114672 -7.96074e-05 -0.000507321)
(0.114808 -7.93561e-05 -0.000524277)
(0.114692 -7.07985e-05 -0.000504229)
(0.114789 -7.57926e-05 -0.000514555)
(0.11465 -6.00741e-05 -0.00048751)
(0.114778 -5.66636e-05 -0.000502552)
(0.114666 -3.88494e-05 -0.000501938)
(0.114794 -4.41647e-05 -0.000543199)
(0.114667 -3.62524e-05 -0.000557394)
(0.11478 -5.04437e-05 -0.000602848)
(0.11469 -3.65398e-05 -0.000614272)
(0.114864 -4.25343e-05 -0.000655425)
(0.114708 -3.86284e-05 -0.000643692)
(0.114828 -4.5053e-05 -0.000664318)
(0.114631 -4.59123e-05 -0.000649238)
(0.114689 -6.07516e-05 -0.000664005)
(0.114527 -6.59295e-05 -0.000626409)
(0.11459 -8.04711e-05 -0.000629583)
(0.11446 -8.91585e-05 -0.000564144)
(0.114579 -0.000110424 -0.000584739)
(0.114417 -0.00011786 -0.000547166)
(0.114527 -0.000125421 -0.000600747)
(0.114408 -0.000124843 -0.000588534)
(0.114547 -0.000129175 -0.000658413)
(0.114517 -0.000119734 -0.000671298)
(0.11465 -0.000124042 -0.000724012)
(0.114597 -0.000108135 -0.000718643)
(0.114709 -0.000107891 -0.000765966)
(0.114596 -9.92741e-05 -0.000753185)
(0.114704 -0.000101497 -0.000790979)
(0.114622 -8.35017e-05 -0.000731666)
(0.114759 -7.66873e-05 -0.00074361)
(0.114685 -6.32039e-05 -0.000695257)
(0.11482 -6.99626e-05 -0.000702448)
(0.114737 -6.04748e-05 -0.000651449)
(0.114872 -5.90248e-05 -0.000692966)
(0.114772 -4.17178e-05 -0.000661053)
(0.114857 -5.12285e-05 -0.000711636)
(0.114768 -4.59138e-05 -0.000669764)
(0.114891 -6.22798e-05 -0.000729511)
(0.114818 -5.08206e-05 -0.000723999)
(0.11492 -7.03463e-05 -0.000811455)
(0.114804 -7.40464e-05 -0.000786052)
(0.114849 -9.64243e-05 -0.000800825)
(0.114698 -8.60026e-05 -0.000712463)
(0.114736 -9.02913e-05 -0.000693966)
(0.114634 -5.67309e-05 -0.000595535)
(0.120958 -3.20783e-05 -0.000590829)
(0.120828 -2.84281e-05 -0.000526564)
(0.120931 -5.14657e-05 -0.000562092)
(0.12084 -5.42634e-05 -0.000503675)
(0.12097 -5.93e-05 -0.000543196)
(0.120904 -4.58034e-05 -0.000489789)
(0.121004 -4.18769e-05 -0.000530575)
(0.120865 -3.35962e-05 -0.000490833)
(0.12093 -4.14876e-05 -0.000534715)
(0.120799 -4.34475e-05 -0.000505575)
(0.120856 -4.96828e-05 -0.000563766)
(0.120765 -4.44367e-05 -0.000551618)
(0.120824 -5.79335e-05 -0.000613958)
(0.120728 -6.00288e-05 -0.000605531)
(0.120798 -6.85705e-05 -0.00065898)
(0.120662 -6.52698e-05 -0.000619529)
(0.120779 -6.85905e-05 -0.000657775)
(0.120693 -5.43157e-05 -0.000609024)
(0.120806 -5.42097e-05 -0.000631506)
(0.120739 -4.2651e-05 -0.00056247)
(0.120828 -4.82544e-05 -0.000578711)
(0.120765 -5.1947e-05 -0.000506039)
(0.120875 -5.59129e-05 -0.000540098)
(0.12079 -5.35239e-05 -0.000487933)
(0.12094 -5.98992e-05 -0.000542245)
(0.120869 -6.31121e-05 -0.000515684)
(0.121023 -7.89672e-05 -0.00058796)
(0.120993 -8.61384e-05 -0.00058396)
(0.121115 -9.93899e-05 -0.000645431)
(0.121092 -9.72648e-05 -0.000645496)
(0.121211 -0.000104994 -0.000716932)
(0.121165 -0.000102445 -0.000713878)
(0.121281 -0.000105778 -0.00075071)
(0.121228 -9.01252e-05 -0.000710622)
(0.12133 -8.51573e-05 -0.000741224)
(0.121239 -7.38379e-05 -0.000725359)
(0.121299 -8.06515e-05 -0.00075179)
(0.121212 -7.17944e-05 -0.000695834)
(0.121269 -6.4766e-05 -0.000747585)
(0.12117 -4.57009e-05 -0.000698219)
(0.121231 -4.30378e-05 -0.000733819)
(0.121145 -3.17991e-05 -0.000667968)
(0.121178 -3.95317e-05 -0.000715214)
(0.121086 -4.10598e-05 -0.000700221)
(0.12117 -5.16325e-05 -0.000764298)
(0.121054 -4.68233e-05 -0.000722181)
(0.121132 -3.39626e-05 -0.000760684)
(0.120982 -2.98654e-05 -0.000677628)
(0.121043 -3.1078e-05 -0.000701726)
(0.120849 -3.98872e-05 -0.000601547)
(0.125837 -1.74513e-05 -0.000543765)
(0.125743 -2.29535e-05 -0.000475908)
(0.125802 -4.69471e-05 -0.000517403)
(0.125693 -6.15783e-05 -0.000460999)
(0.125757 -8.92803e-05 -0.000481953)
(0.12566 -9.0352e-05 -0.000431187)
(0.125742 -9.34325e-05 -0.000470779)
(0.125641 -7.54282e-05 -0.00042694)
(0.125721 -7.3457e-05 -0.000464199)
(0.125643 -5.49645e-05 -0.000428296)
(0.12569 -5.58065e-05 -0.000481272)
(0.125633 -4.62113e-05 -0.000453786)
(0.125667 -5.36866e-05 -0.000515274)
(0.125624 -4.50261e-05 -0.000499674)
(0.125705 -4.90625e-05 -0.000562391)
(0.12568 -3.99281e-05 -0.000524171)
(0.1258 -5.22698e-05 -0.000575257)
(0.125791 -4.93052e-05 -0.000518002)
(0.125914 -6.24154e-05 -0.000561526)
(0.125907 -5.43909e-05 -0.000483424)
(0.126032 -7.07115e-05 -0.000507511)
(0.125997 -8.25402e-05 -0.000435198)
(0.126145 -9.73909e-05 -0.000469459)
(0.126079 -0.000102493 -0.000415926)
(0.126206 -0.000122169 -0.000470704)
(0.126132 -0.000121752 -0.000447883)
(0.126211 -0.000139482 -0.000518487)
(0.126114 -0.000129157 -0.000493054)
(0.126149 -0.000134831 -0.000541537)
(0.126082 -0.000118825 -0.000524162)
(0.126132 -0.000115142 -0.000589907)
(0.126079 -9.03186e-05 -0.000562798)
(0.126096 -8.37026e-05 -0.000599951)
(0.126028 -5.92167e-05 -0.000546602)
(0.126036 -6.00242e-05 -0.000599913)
(0.125971 -4.22751e-05 -0.000562028)
(0.125983 -5.35199e-05 -0.000589988)
(0.125934 -4.36742e-05 -0.000534943)
(0.125956 -5.04476e-05 -0.000573309)
(0.125915 -3.66631e-05 -0.000506535)
(0.125899 -5.85572e-05 -0.000557313)
(0.125892 -5.11515e-05 -0.000505381)
(0.125904 -6.7547e-05 -0.00057282)
(0.125903 -5.26999e-05 -0.000528351)
(0.125896 -7.49434e-05 -0.000598931)
(0.125883 -5.96511e-05 -0.000560458)
(0.12588 -5.68592e-05 -0.000637976)
(0.125858 -2.38972e-05 -0.000575781)
(0.125853 -2.95566e-05 -0.00064396)
(0.125816 6.04282e-06 -0.000554164)
(0.129892 -6.97085e-05 -0.000373474)
(0.129881 -5.01591e-05 -0.00035584)
(0.12988 -5.54038e-05 -0.000383152)
(0.129895 -4.85922e-05 -0.000349943)
(0.129894 -6.11871e-05 -0.000359253)
(0.129911 -5.62858e-05 -0.000321082)
(0.129917 -6.83888e-05 -0.000329337)
(0.12995 -6.45108e-05 -0.000288118)
(0.129962 -8.41284e-05 -0.000293076)
(0.130007 -7.67339e-05 -0.000263024)
(0.129997 -9.72722e-05 -0.000280476)
(0.130032 -0.00010168 -0.000266997)
(0.130028 -0.000116247 -0.000303004)
(0.130063 -0.000123906 -0.0002976)
(0.130053 -0.000143485 -0.000335955)
(0.130071 -0.000144083 -0.000327322)
(0.130055 -0.000151336 -0.000354744)
(0.130051 -0.000140602 -0.000335512)
(0.13005 -0.000140801 -0.000351384)
(0.130048 -0.000124227 -0.000313584)
(0.130058 -0.000126675 -0.000323147)
(0.130055 -0.000121055 -0.000284648)
(0.130054 -0.000129273 -0.000296473)
(0.130017 -0.000128985 -0.000275664)
(0.129961 -0.000146738 -0.000308871)
(0.12992 -0.000140528 -0.000309878)
(0.129857 -0.000154395 -0.000346686)
(0.129809 -0.000142968 -0.000326817)
(0.129754 -0.000154897 -0.000354305)
(0.129724 -0.000143349 -0.000340903)
(0.129678 -0.000155335 -0.000386359)
(0.129657 -0.000150467 -0.000358634)
(0.129629 -0.000142848 -0.000387227)
(0.129637 -0.000111247 -0.000361094)
(0.129618 -0.000114579 -0.000391902)
(0.129611 -0.000114026 -0.000362885)
(0.129588 -0.000127978 -0.000366916)
(0.129623 -0.000126417 -0.000332884)
(0.129631 -0.00012494 -0.000346312)
(0.12968 -0.000102456 -0.000300678)
(0.129653 -9.72945e-05 -0.000312288)
(0.129702 -8.82151e-05 -0.000293086)
(0.12968 -9.29925e-05 -0.000333799)
(0.12975 -8.56713e-05 -0.000317235)
(0.129745 -8.74572e-05 -0.000350709)
(0.129805 -9.33553e-05 -0.000324535)
(0.129766 -8.52953e-05 -0.000368438)
(0.129841 -7.97458e-05 -0.000346862)
(0.129829 -6.70151e-05 -0.000396984)
(0.1299 -7.705e-05 -0.000366709)
(0.133181 -0.000161217 -0.000145566)
(0.133236 -0.000153182 -0.000139058)
(0.133257 -0.000155844 -0.000173208)
(0.133298 -0.000149373 -0.000150202)
(0.133287 -0.000156147 -0.000168499)
(0.133283 -0.000143134 -0.000131615)
(0.133239 -0.000134807 -0.000135172)
(0.13322 -0.000121837 -8.88456e-05)
(0.133158 -0.000123908 -9.288e-05)
(0.133135 -0.00011355 -5.50272e-05)
(0.13306 -0.000117794 -7.42654e-05)
(0.133028 -0.000116443 -5.48721e-05)
(0.132954 -0.000116259 -7.95912e-05)
(0.132924 -0.000121009 -6.09457e-05)
(0.132828 -0.000137471 -8.94005e-05)
(0.132782 -0.000141265 -7.11117e-05)
(0.132675 -0.000149331 -9.83153e-05)
(0.13264 -0.000156129 -7.22382e-05)
(0.132582 -0.000165803 -9.16945e-05)
(0.132574 -0.000164668 -5.39144e-05)
(0.132538 -0.000186595 -6.77002e-05)
(0.132548 -0.000205645 -3.57433e-05)
(0.132549 -0.000226951 -4.23963e-05)
(0.132576 -0.000220492 -2.33609e-05)
(0.132571 -0.000223451 -4.49664e-05)
(0.132587 -0.00021459 -3.21202e-05)
(0.132563 -0.000216076 -4.86871e-05)
(0.132563 -0.000202926 -2.41623e-05)
(0.132543 -0.000204247 -4.6266e-05)
(0.132546 -0.00018669 -4.20236e-05)
(0.132533 -0.000186256 -7.88649e-05)
(0.132518 -0.000171555 -7.19733e-05)
(0.132514 -0.000164593 -0.000108428)
(0.132516 -0.000141484 -0.000103292)
(0.13255 -0.000151119 -0.000131702)
(0.132564 -0.000146975 -0.000116858)
(0.132595 -0.000170418 -0.000129446)
(0.132625 -0.000174197 -9.94273e-05)
(0.132677 -0.000185009 -0.000117433)
(0.13274 -0.000168907 -7.6646e-05)
(0.132813 -0.000188499 -9.15966e-05)
(0.132886 -0.000185251 -6.40858e-05)
(0.132955 -0.000200478 -9.74891e-05)
(0.133029 -0.000201864 -7.6662e-05)
(0.133097 -0.000222199 -9.28408e-05)
(0.13312 -0.000204296 -6.68128e-05)
(0.133131 -0.000203028 -9.98662e-05)
(0.133136 -0.000176473 -9.13454e-05)
(0.133173 -0.000182674 -0.000137988)
(0.133174 -0.000158209 -0.000134707)
(0.134967 -0.000240699 2.88849e-05)
(0.134991 -0.000225533 4.19541e-05)
(0.134965 -0.000210161 2.30301e-05)
(0.134982 -0.000195538 3.57978e-05)
(0.134945 -0.000190819 2.25898e-05)
(0.134938 -0.000182875 4.21289e-05)
(0.134884 -0.000181669 3.39173e-05)
(0.134886 -0.000184451 5.63431e-05)
(0.134841 -0.000189325 4.64936e-05)
(0.134847 -0.000187825 6.01708e-05)
(0.13478 -0.000202215 4.06539e-05)
(0.134779 -0.000220962 4.8828e-05)
(0.134723 -0.000236728 3.09829e-05)
(0.134749 -0.000243896 4.45043e-05)
(0.1347 -0.000249127 3.5517e-05)
(0.134701 -0.000244304 5.25246e-05)
(0.134614 -0.000244258 3.94284e-05)
(0.13459 -0.000251089 5.83371e-05)
(0.134515 -0.000248185 5.42577e-05)
(0.134492 -0.00024209 8.0033e-05)
(0.134402 -0.000249515 7.10426e-05)
(0.134395 -0.000248927 9.10393e-05)
(0.134335 -0.000253241 7.7412e-05)
(0.134353 -0.0002543 8.90773e-05)
(0.13433 -0.000255881 7.53032e-05)
(0.134379 -0.000247332 9.71982e-05)
(0.134364 -0.000247758 8.47142e-05)
(0.134427 -0.000246051 9.38463e-05)
(0.134427 -0.000248643 6.62507e-05)
(0.13453 -0.000251338 6.2213e-05)
(0.134576 -0.00026421 2.92725e-05)
(0.134688 -0.000270873 2.75383e-05)
(0.134724 -0.000274311 -5.32298e-06)
(0.134838 -0.000273337 -1.02803e-05)
(0.13487 -0.000276456 -2.99488e-05)
(0.134955 -0.000269871 -1.48802e-05)
(0.134938 -0.000268656 -1.43832e-05)
(0.134999 -0.000266749 1.20274e-05)
(0.134976 -0.000262141 4.81023e-06)
(0.135036 -0.00026211 2.70255e-05)
(0.135006 -0.000266394 2.04493e-05)
(0.135058 -0.000263929 4.39654e-05)
(0.135016 -0.000255778 3.49111e-05)
(0.13506 -0.000262904 5.25682e-05)
(0.135015 -0.000264816 5.31189e-05)
(0.135061 -0.000264895 7.08059e-05)
(0.135014 -0.000261639 5.14415e-05)
(0.135042 -0.000267501 5.81621e-05)
(0.135003 -0.000262967 2.95867e-05)
(0.135014 -0.000247698 3.14471e-05)
(0.136254 -0.00026085 2.83228e-05)
(0.136294 -0.00026566 4.14062e-05)
(0.136287 -0.000279913 2.43644e-05)
(0.136335 -0.000277786 2.65621e-05)
(0.136343 -0.000267567 1.21759e-05)
(0.136379 -0.00025891 2.23001e-05)
(0.136345 -0.000257291 1.48452e-05)
(0.136355 -0.000255974 2.24662e-05)
(0.13631 -0.000257431 1.44043e-05)
(0.136313 -0.000262326 2.19882e-05)
(0.136244 -0.000272384 1.58673e-05)
(0.136239 -0.000270457 2.69223e-05)
(0.136184 -0.000267058 2.59652e-05)
(0.136195 -0.00026987 4.40923e-05)
(0.136166 -0.000272191 4.80241e-05)
(0.136192 -0.000259141 6.59762e-05)
(0.136162 -0.000256537 5.77317e-05)
(0.136181 -0.000257687 7.18792e-05)
(0.136168 -0.000255408 7.13822e-05)
(0.136208 -0.00025148 9.15487e-05)
(0.136197 -0.000258751 8.2877e-05)
(0.136258 -0.0002626 9.0279e-05)
(0.136266 -0.000273152 7.62029e-05)
(0.136322 -0.000278677 8.23719e-05)
(0.136337 -0.000281896 8.16977e-05)
(0.136381 -0.000273053 0.000102007)
(0.136368 -0.000268557 9.06527e-05)
(0.13642 -0.000261796 9.15787e-05)
(0.136396 -0.000261592 6.2761e-05)
(0.13644 -0.000266325 6.26725e-05)
(0.1364 -0.000275282 4.17382e-05)
(0.136426 -0.000275695 4.76863e-05)
(0.136392 -0.000282723 2.64862e-05)
(0.136426 -0.00027568 2.18674e-05)
(0.136417 -0.000274141 4.75459e-06)
(0.136475 -0.000263086 1.92482e-05)
(0.136462 -0.000269263 1.48833e-05)
(0.136503 -0.000272329 3.03995e-05)
(0.136464 -0.000277325 2.27955e-05)
(0.136482 -0.000271106 3.57776e-05)
(0.136439 -0.000282962 2.73907e-05)
(0.136474 -0.00028233 4.58762e-05)
(0.136428 -0.00029261 4.45172e-05)
(0.136449 -0.000306565 5.96249e-05)
(0.136396 -0.000317059 5.54265e-05)
(0.136408 -0.000301597 6.62584e-05)
(0.136344 -0.000292537 4.57085e-05)
(0.13634 -0.000278199 4.60876e-05)
(0.136292 -0.000271494 3.03547e-05)
(0.136291 -0.000254914 3.38135e-05)
(0.137438 -0.000403544 -0.000127284)
(0.137463 -0.000408231 -0.000111963)
(0.137434 -0.000415054 -0.000117505)
(0.137463 -0.000413716 -0.000107902)
(0.13746 -0.000400452 -0.000105787)
(0.137511 -0.000401952 -8.95006e-05)
(0.137519 -0.000398726 -9.49633e-05)
(0.137579 -0.000390089 -8.90201e-05)
(0.137581 -0.000383275 -8.57406e-05)
(0.137629 -0.000392238 -6.86146e-05)
(0.137631 -0.000391821 -6.33989e-05)
(0.137695 -0.00039098 -4.37123e-05)
(0.137692 -0.000392255 -3.6523e-05)
(0.137745 -0.000396908 -1.46485e-05)
(0.137749 -0.000386967 -8.4846e-06)
(0.137805 -0.000372407 9.42091e-06)
(0.137794 -0.000369655 8.52603e-06)
(0.137823 -0.000361023 2.21372e-05)
(0.137814 -0.000358732 3.22109e-05)
(0.13784 -0.000366917 5.24541e-05)
(0.137806 -0.000379996 4.50743e-05)
(0.137819 -0.000393466 5.3772e-05)
(0.137793 -0.000402018 4.3574e-05)
(0.137793 -0.000411596 4.99816e-05)
(0.137772 -0.000414034 3.95921e-05)
(0.137799 -0.000405799 4.52241e-05)
(0.137774 -0.000401808 2.20644e-05)
(0.137809 -0.000405003 1.90188e-05)
(0.137763 -0.000404739 -3.82312e-06)
(0.137766 -0.000412757 -1.63056e-06)
(0.137693 -0.000412654 -1.69047e-05)
(0.137706 -0.000418373 -1.63667e-05)
(0.137651 -0.000423579 -2.81314e-05)
(0.137685 -0.000428276 -2.97928e-05)
(0.137632 -0.000421366 -3.86451e-05)
(0.137679 -0.000420403 -3.33496e-05)
(0.137624 -0.000403619 -5.06554e-05)