/*--------------------------------*- C++ -*----------------------------------*\
| =========                 |                                                 |
| \\      /  F ield         | OpenFOAM: The Open Source CFD Toolbox           |
|  \\    /   O peration     | Version:  2.3.0                                 |
|   \\  /    A nd           | Web:      www.OpenFOAM.org                      |
|    \\/     M anipulation  |                                                 |
\*---------------------------------------------------------------------------*/
FoamFile
{
    version     2.0;
    format      ascii;
    class       volVectorField;
    location    "0";
    object      U;
}
// * * * * * * * * * * * * * * * * * * * * * * * * * * * * * * * * * * * * * //

dimensions      [0 1 -1 0 0 0 0];

internalField   nonuniform List<vector> 
90000
(
(0.0117568 -2.64614e-05 0.000201537)
(0.0122666 -3.50395e-05 0.000875691)
(0.0116066 -3.50395e-05 0.000721343)
(0.0114298 -2.59457e-05 0.000794203)
(0.0116524 -2.30178e-05 0.00118669)
(0.0112076 -2.2066e-05 0.000851914)
(0.0103666 -1.34048e-05 0.000459193)
(0.0095532 -2.63435e-06 0.000203825)
(0.0081051 -5.03113e-06 -0.000267602)
(0.00678997 -2.9073e-05 -0.000433457)
(0.00682 -5.38125e-05 -0.000865955)
(0.00705473 -5.3257e-05 -0.00109371)
(0.00699246 -3.78258e-05 -0.000853485)
(0.00705961 -2.54422e-05 -0.000711258)
(0.00741809 -1.55981e-05 -0.000591566)
(0.00767852 -9.64671e-07 -0.000159198)
(0.00773812 1.80422e-05 0.000282354)
(0.00795682 3.01269e-05 0.000642832)
(0.00829858 2.81848e-05 0.000941797)
(0.00876681 1.83984e-05 0.00116043)
(0.00930188 8.49942e-06 0.00117368)
(0.00972956 2.07921e-06 0.000784586)
(0.0106706 1.5105e-06 0.000619273)
(0.0107755 2.13309e-06 9.15196e-05)
(0.0107917 5.77218e-06 -0.000327076)
(0.00996389 1.64635e-05 -0.000640657)
(0.00899031 1.25613e-05 -0.000996553)
(0.00842086 -1.58235e-05 -0.00141827)
(0.00769761 -3.37289e-05 -0.00104024)
(0.00722277 -2.36059e-05 -0.000605704)
(0.00766849 -7.63545e-06 -0.000578419)
(0.00777763 5.99285e-06 -6.6012e-05)
(0.00817334 2.79547e-05 0.000320884)
(0.00895954 5.74212e-05 0.000727757)
(0.00986487 8.0948e-05 0.00121892)
(0.0104811 9.13083e-05 0.00129076)
(0.0106392 9.6606e-05 0.00074764)
(0.011475 9.72142e-05 0.000925266)
(0.0115074 7.63415e-05 0.000474549)
(0.0118196 3.29253e-05 3.16789e-05)
(0.0114928 -1.16006e-05 -0.000325786)
(0.0344937 -0.000242813 -0.000777357)
(0.0342448 -0.000237871 -0.000972928)
(0.0336717 -0.000179806 -0.000868601)
(0.0337222 -0.000132517 -0.00132291)
(0.0325906 -7.99243e-05 -0.000897699)
(0.0301263 -1.4709e-05 -0.000335018)
(0.0270519 5.57872e-06 1.41793e-05)
(0.0232979 -7.37468e-05 0.000403481)
(0.020637 -0.000228537 0.000715708)
(0.0206325 -0.000335558 0.000424877)
(0.0211125 -0.000309971 0.0016136)
(0.0207836 -0.000220251 0.0021461)
(0.02147 -0.000144328 0.00326659)
(0.0219834 -8.07447e-05 0.00358184)
(0.0226988 -8.80426e-06 0.00317735)
(0.0239056 6.16317e-05 0.00234332)
(0.0231497 9.22546e-05 0.000428216)
(0.0249536 6.92431e-05 -0.000757884)
(0.0258707 2.1965e-05 -0.00159194)
(0.0275356 -1.61795e-05 -0.00225721)
(0.0289439 -2.62991e-05 -0.00201408)
(0.0319632 -7.31124e-06 -0.0031405)
(0.0338327 1.25843e-05 -0.00315769)
(0.0328489 2.84426e-05 -0.00153372)
(0.031281 3.69735e-05 -0.000417868)
(0.0273958 -2.50496e-05 0.000545307)
(0.0261625 -0.000154837 0.00212128)
(0.0250507 -0.000226937 0.0037174)
(0.0219551 -0.000196799 0.00232227)
(0.0230359 -0.000129605 0.00381031)
(0.0241449 -3.77832e-05 0.00347326)
(0.0235814 0.000110854 0.0010687)
(0.025824 0.000291219 0.00024267)
(0.0281354 0.00042585 -0.000885662)
(0.0309015 0.000474156 -0.00241628)
(0.032706 0.000466395 -0.00321219)
(0.0336126 0.000411408 -0.00293323)
(0.0355097 0.000259297 -0.00365742)
(0.0349483 2.94734e-05 -0.00183561)
(0.0360001 -0.000172682 -0.00129713)
(0.0601485 -0.000734181 -0.000174142)
(0.0594839 -0.000676482 0.00093687)
(0.0588445 -0.000532313 0.00191837)
(0.0586256 -0.000403758 0.00309874)
(0.0567776 -0.000247232 0.00303658)
(0.0540465 -6.76604e-05 0.00311835)
(0.0491909 -1.02093e-05 0.00223585)
(0.0440415 -0.000204516 0.00141995)
(0.0388902 -0.000580944 7.3707e-05)
(0.0360868 -0.000831916 -0.00127587)
(0.0347919 -0.000768029 -0.00244315)
(0.0327054 -0.000550736 -0.00176889)
(0.0338969 -0.000357118 -0.00354442)
(0.0343698 -0.000192347 -0.00366736)
(0.0350308 -2.56941e-05 -0.00279835)
(0.0348951 0.000111767 -0.000979896)
(0.0369742 0.000146393 3.86101e-05)
(0.0399954 6.41908e-05 0.00157384)
(0.0412605 -6.68198e-05 0.00177035)
(0.0483185 -0.000167926 0.00130372)
(0.0504388 -0.000185781 0.00290234)
(0.0553019 -0.000126387 0.00574032)
(0.0568723 -6.88882e-05 0.0059638)
(0.0565862 -3.7226e-05 0.00510973)
(0.0544992 -4.40801e-05 0.00412218)
(0.0518047 -0.000190182 0.00328433)
(0.0464164 -0.000436202 0.000812031)
(0.0425744 -0.000554875 -0.00117998)
(0.0399789 -0.00049317 -0.00342302)
(0.0372405 -0.000361845 -0.00419091)
(0.0389244 -0.000150333 -0.00642618)
(0.03794 0.00021034 -0.00320973)
(0.0424768 0.000651845 -0.00387435)
(0.0453567 0.00099021 -0.00211751)
(0.0503016 0.0011111 -0.000715804)
(0.0562364 0.00105171 0.0021459)
(0.0591708 0.000838117 0.00480318)
(0.059776 0.000414693 0.00497928)
(0.0606013 -0.000131539 0.00461786)
(0.0639217 -0.000574117 0.00686167)
(0.0865849 -0.00135342 0.00445205)
(0.0837244 -0.0012539 0.00171203)
(0.0833589 -0.00100181 0.000390166)
(0.0824386 -0.000758249 -0.00123602)
(0.0816379 -0.000472134 -0.00318885)
(0.0782325 -0.000154478 -0.0041055)
(0.075512 -2.02193e-05 -0.00674127)
(0.0672767 -0.000270823 -0.00460051)
(0.0609266 -0.000865455 -0.0044759)
(0.0547309 -0.00134828 -0.00263865)
(0.0506401 -0.0013278 -0.000317656)
(0.0488316 -0.00100088 0.00179699)
(0.0467385 -0.000675211 0.00281563)
(0.0471929 -0.000396439 0.00456869)
(0.0475442 -0.000130966 0.00488433)
(0.0492989 6.84399e-05 0.00502004)
(0.0510032 8.67538e-05 0.0035846)
(0.0552242 -9.63063e-05 0.00255386)
(0.0589548 -0.000372641 0.000141506)
(0.0645044 -0.000597427 -0.00267854)
(0.0663433 -0.00064514 -0.00263801)
(0.0739952 -0.000510006 -0.00602606)
(0.0786167 -0.00034863 -0.00719394)
(0.0807596 -0.000242357 -0.00674224)
(0.0768946 -0.000228097 -0.00292641)
(0.0748334 -0.000433518 -0.00226672)
(0.0685468 -0.000768497 6.56252e-05)
(0.0606909 -0.00090658 0.00128026)
(0.0584284 -0.000814737 0.00501679)
(0.0536396 -0.000674392 0.00132485)
(0.0545128 -0.000433407 0.00538377)
(0.0540994 6.9478e-05 0.00646371)
(0.0570162 0.000761513 0.00676823)
(0.0611252 0.00134642 0.00581322)
(0.067836 0.00160699 0.00583211)
(0.0729596 0.00154365 0.00346642)
(0.0777133 0.00116607 0.00094959)
(0.0830563 0.000439638 -0.00151549)
(0.0890746 -0.000426595 -0.00559055)
(0.0884392 -0.00109621 -0.00636102)
(0.109396 -0.00195886 -0.00643993)
(0.108606 -0.00186213 -0.00732246)
(0.109543 -0.00153771 -0.00768015)
(0.108237 -0.00115795 -0.00441339)
(0.105304 -0.000720182 -0.000877911)
(0.103569 -0.000281565 0.00203346)
(0.100581 -5.68448e-05 0.00520477)
(0.094169 -0.000237894 0.00659203)
(0.0874159 -0.000926913 0.00931884)
(0.07556 -0.00169987 0.00707077)
(0.0665959 -0.00190012 0.00462614)
(0.0637487 -0.00156939 0.00337398)
(0.0619323 -0.00112236 0.000684987)
(0.0623954 -0.00072247 -0.00270064)
(0.06112 -0.00036386 -0.00500386)
(0.0625325 -0.000114347 -0.00733901)
(0.066387 -0.00013413 -0.0102193)
(0.0667881 -0.000473188 -0.00716562)
(0.0733873 -0.00100279 -0.00776024)
(0.0776781 -0.00149088 -0.00403026)
(0.0820004 -0.00165937 -0.000376558)
(0.0897045 -0.00142278 0.00230763)
(0.0948533 -0.00103637 0.00368124)
(0.101834 -0.00070329 0.0071842)
(0.100885 -0.000536904 0.00540828)
(0.100074 -0.000741098 0.00686935)
(0.0933745 -0.00115098 0.0045756)
(0.0871249 -0.00125473 0.0029396)
(0.0788689 -0.00104972 0.000149565)
(0.0734137 -0.000899613 -0.00321574)
(0.0680793 -0.00076861 -0.00621718)
(0.0655137 -0.000351617 -0.00711171)
(0.0675958 0.000384409 -0.00713799)
(0.0733538 0.00111185 -0.00682466)
(0.0798136 0.00154458 -0.00455165)
(0.087827 0.00160989 -0.0024045)
(0.0987501 0.0011872 0.000120963)
(0.104019 0.000210536 0.00297391)
(0.108826 -0.000900835 0.00492376)
(0.11471 -0.00166684 0.00216177)
(0.129704 -0.00237518 0.00470843)
(0.129847 -0.0023054 0.0107277)
(0.122536 -0.00206553 0.00680138)
(0.123386 -0.00158062 0.00700307)
(0.129763 -0.000954782 0.0110977)
(0.123619 -0.000398366 0.00452146)
(0.125478 -0.00013274 0.00209494)
(0.120907 -0.000191179 -0.0026128)
(0.114226 -0.00069919 -0.00654225)
(0.100172 -0.00159823 -0.00729968)
(0.0859652 -0.00221737 -0.00676147)
(0.0804185 -0.00215201 -0.00946855)
(0.0782425 -0.00168374 -0.00942035)
(0.0717277 -0.00115847 -0.0035903)
(0.0740278 -0.00070621 -0.00135416)
(0.0731301 -0.000420217 0.00253652)
(0.0706105 -0.000494791 0.00358558)
(0.0739842 -0.00104078 0.00653563)
(0.0793246 -0.00196423 0.0102191)
(0.0791866 -0.00296527 0.00522612)
(0.091387 -0.00352439 0.00835949)
(0.0973169 -0.00330132 0.00335072)
(0.108072 -0.00255719 0.000747037)
(0.117207 -0.00168558 -0.00253043)
(0.121781 -0.00105354 -0.00486471)
(0.124274 -0.00109536 -0.0089454)
(0.117446 -0.00157673 -0.00768953)
(0.11376 -0.00166302 -0.0106604)
(0.102044 -0.00124156 -0.00541163)
(0.0951156 -0.000897942 -0.00398347)
(0.0864638 -0.000835813 -0.000517461)
(0.0805462 -0.000712436 0.00296821)
(0.0825939 -0.000316785 0.00827088)
(0.0818211 0.000134168 0.00706127)
(0.0913608 0.000465223 0.0103245)
(0.100789 0.000697791 0.00966317)
(0.110067 0.000464027 0.00710835)
(0.116675 -0.000569631 0.00263584)
(0.129134 -0.00175026 0.00023714)
(0.132972 -0.00231509 -0.00365811)
(0.146037 -0.0025568 -0.00790628)
(0.137762 -0.00215227 -0.00906085)
(0.133034 -0.00239146 -0.010294)
(0.134068 -0.00218122 -0.0090508)
(0.136874 -0.00125814 -0.00627443)
(0.138873 -0.000438697 -0.0039159)
(0.136336 -0.000242967 0.000119218)
(0.133454 -0.000310607 0.00287473)
(0.132908 -0.000438077 0.00596742)
(0.12963 -0.000970841 0.00260643)
(0.106793 -0.00184285 0.00258151)
(0.0958359 -0.00241279 0.00671081)
(0.089917 -0.00225294 0.0106486)
(0.0837009 -0.00165119 0.00835015)
(0.0809094 -0.00106709 0.0061499)
(0.0855961 -0.000732216 0.00703848)
(0.0812154 -0.000845613 0.00141228)
(0.0857403 -0.00159745 -0.00308307)
(0.0816004 -0.00302693 -0.00506022)
(0.0846024 -0.00482459 -0.00867915)
(0.0907048 -0.00615423 -0.011378)
(0.102844 -0.00628802 -0.0143555)
(0.110317 -0.00537096 -0.00804662)
(0.123341 -0.00381483 -0.00492957)
(0.136311 -0.00220281 -0.00147323)
(0.144329 -0.00160138 0.00401473)
(0.138926 -0.00207919 0.00769898)
(0.130795 -0.00223251 0.00907638)
(0.123554 -0.00150309 0.00940052)
(0.115904 -0.000747134 0.00821727)
(0.110812 -0.000495158 0.00904748)
(0.102232 -0.00054767 0.00544726)
(0.0924935 -0.000670983 0.000720668)
(0.0921135 -0.000977602 -0.00267354)
(0.0949539 -0.00138716 -0.00511291)
(0.105904 -0.00136784 -0.00958097)
(0.116133 -0.00134092 -0.0112168)
(0.126546 -0.00232305 -0.0114957)
(0.138447 -0.00355634 -0.0101008)
(0.140554 -0.00350733 -0.00269033)
(0.154843 -0.00323677 -0.0007866)
(0.146871 -0.00124882 0.00366291)
(0.138516 -0.00180001 0.00833196)
(0.135719 -0.00282372 0.0104127)
(0.143468 -0.00204649 0.0126291)
(0.143283 -0.000492485 0.0066838)
(0.143759 -0.000107259 0.00698789)
(0.143218 -0.000702856 0.00495348)
(0.144889 -0.000854539 0.000266039)
(0.141599 -0.000511879 -0.00247942)
(0.135389 -0.000778125 -0.00632024)
(0.117371 -0.00176048 -0.00669699)
(0.105929 -0.00240374 -0.0111168)
(0.0980633 -0.00213041 -0.0111596)
(0.0963556 -0.00145984 -0.0099239)
(0.0938152 -0.00100387 -0.00469907)
(0.0892774 -0.00107619 9.9213e-05)
(0.0922056 -0.00192982 0.00447424)
(0.0901729 -0.00377879 0.00725016)
(0.0873855 -0.00640683 0.00165052)
(0.0913753 -0.00869942 0.00661514)
(0.0901511 -0.00941716 0.00385557)
(0.106825 -0.00861623 0.0108866)
(0.121039 -0.00678772 0.0104824)
(0.136722 -0.00427409 0.00843525)
(0.146347 -0.00251199 0.00527786)
(0.143831 -0.00253304 0.00150559)
(0.138599 -0.00293228 -0.00292937)
(0.134224 -0.00223329 -0.00859987)
(0.1246 -0.000982615 -0.00569527)
(0.126899 -8.20833e-05 -0.010562)
(0.125622 0.000256481 -0.0137348)
(0.115794 -4.19175e-05 -0.00931611)
(0.108926 -0.00118593 -0.00577279)
(0.104265 -0.00290671 -0.00113128)
(0.112421 -0.00384343 0.00342703)
(0.118768 -0.00379035 0.00651414)
(0.131997 -0.00461176 0.0138278)
(0.136474 -0.00625967 0.0117415)
(0.143731 -0.00596242 0.00785034)
(0.153268 -0.00515984 0.00853186)
(0.155883 -0.000683393 0.00653746)
(0.148559 -0.000120624 0.00150169)
(0.135027 -0.00252784 -0.00314011)
(0.132777 -0.00326894 -0.00309528)
(0.150848 -0.00112113 -0.012123)
(0.154876 0.000468971 -0.0147335)
(0.147259 -0.00063025 -0.0125751)
(0.141167 -0.00239043 -0.00823262)
(0.146054 -0.00200564 -0.0042402)
(0.153073 -0.000487359 -0.000662499)
(0.146658 -0.000385234 0.00432246)
(0.125283 -0.0014163 0.0058487)
(0.108895 -0.00197059 0.00718117)
(0.104907 -0.0017295 0.0125758)
(0.104351 -0.00137355 0.0137268)
(0.100162 -0.00143662 0.00709134)
(0.10195 -0.0022495 0.00420284)
(0.104564 -0.00414948 0.00028987)
(0.101517 -0.00716357 -0.00418911)
(0.0990031 -0.0102813 -0.00802329)
(0.0968848 -0.0117798 -0.00790856)
(0.109787 -0.0112923 -0.0151451)
(0.118495 -0.00958684 -0.010332)
(0.133594 -0.00679609 -0.00683948)
(0.148936 -0.00373839 -0.00462059)
(0.150019 -0.00224728 0.000184622)
(0.132371 -0.00230923 0.00377225)
(0.123242 -0.00239203 0.00848108)
(0.118869 -0.00189258 0.00178378)
(0.131546 -0.000736191 0.00879257)
(0.134049 0.000721785 0.00956163)
(0.137066 0.0013619 0.0150372)
(0.129077 0.000134262 0.0136144)
(0.12084 -0.00286522 0.0101036)
(0.118568 -0.00550735 0.00610988)
(0.121071 -0.00619447 0.00139549)
(0.130367 -0.00676417 -0.00232374)
(0.13676 -0.00863213 -0.005928)
(0.150438 -0.00893472 -0.0142929)
(0.15827 -0.00793281 -0.016631)
(0.157542 -0.0015786 -0.0116475)
(0.147802 0.00137737 -0.00529156)
(0.141771 -0.000850142 -0.0054842)
(0.13855 -0.00372138 -0.00165547)
(0.144977 -0.00280153 0.00339393)
(0.156784 0.000251863 0.00921471)
(0.153937 0.000538454 0.0103445)
(0.145235 -0.00289875 0.0115815)
(0.146083 -0.00543774 0.0147537)
(0.150858 -0.00364071 0.00767012)
(0.160497 -0.000624622 0.005954)
(0.151528 0.000207577 0.00116151)
(0.132662 -0.000474686 -0.00347098)
(0.118055 -0.00110747 -0.00748678)
(0.107556 -0.00149265 -0.00679816)
(0.107752 -0.00205127 -0.00851567)
(0.113525 -0.00300231 -0.0112013)
(0.110547 -0.0046216 -0.00417986)
(0.120764 -0.00730138 -0.00721383)
(0.11559 -0.0106706 -0.000861864)
(0.11327 -0.0130119 0.00547052)
(0.112074 -0.0132191 0.00907103)
(0.123267 -0.0118522 0.0147859)
(0.134685 -0.0090618 0.0139261)
(0.143638 -0.00493469 0.00996661)
(0.144791 -0.00138382 0.00874265)
(0.129051 -0.000135344 0.0035507)
(0.114515 -0.000731641 0.00018122)
(0.112155 -0.00193302 -0.00427436)
(0.120335 -0.00206419 -0.0100674)
(0.130764 -0.000103443 -0.0104977)
(0.138996 0.00229057 -0.00972512)
(0.141388 0.00228687 -0.0113157)
(0.130949 -0.00101827 -0.00513623)
(0.125066 -0.00527607 -0.00227761)
(0.129153 -0.00753247 0.000128906)
(0.136747 -0.00851296 0.00519272)
(0.145518 -0.0104391 0.0114711)
(0.147365 -0.0114923 0.00240939)
(0.15181 -0.0109736 0.00533747)
(0.161231 -0.00416051 0.0124231)
(0.158311 0.00117701 0.0119534)
(0.150581 0.000939201 0.0109262)
(0.14076 -0.00250325 0.00839865)
(0.139381 -0.00388363 0.00584069)
(0.149797 -0.00149256 0.00220817)
(0.157094 0.000735206 -0.00280872)
(0.155199 -0.00151833 -0.00661481)
(0.146695 -0.00657626 -0.00936711)
(0.147977 -0.00816245 -0.012038)
(0.156436 -0.00448466 -0.00892186)
(0.162435 -0.000198054 -0.00884667)
(0.153594 0.00144342 -0.00659486)
(0.135635 0.00100575 -0.00142662)
(0.127345 -0.000342381 0.00383824)
(0.115871 -0.00222643 0.00431561)
(0.122386 -0.00422294 0.0105487)
(0.125156 -0.00585641 0.00915478)
(0.133262 -0.00759104 0.0134538)
(0.129732 -0.0102195 0.0103096)
(0.127174 -0.0128417 0.00831669)
(0.117968 -0.0138394 0.00109854)
(0.123797 -0.013134 -0.00436812)
(0.130596 -0.0105756 -0.00783579)
(0.142328 -0.00567204 -0.0128873)
(0.140818 -0.000351503 -0.0113173)
(0.133568 0.00232275 -0.0120787)
(0.123439 0.00178676 -0.0105267)
(0.108671 -0.000573695 -0.00262941)
(0.112707 -0.00246595 -0.000553868)
(0.125252 -0.00148946 0.00403339)
(0.140717 0.00196154 0.00926265)
(0.147786 0.00399561 0.0114828)
(0.14806 0.00164523 0.0128072)
(0.14444 -0.00335561 0.0116288)
(0.140726 -0.00703233 0.00809857)
(0.143277 -0.00889832 0.00576494)
(0.142658 -0.0113059 0.000237125)
(0.150455 -0.0133379 -0.00502198)
(0.157485 -0.0132516 -0.00988237)
(0.158063 -0.00751661 -0.00981991)
(0.159243 -0.00106262 -0.0115909)
(0.158704 0.00124044 -0.0138699)
(0.148838 -0.000709767 -0.00846169)
(0.141078 -0.00321434 -0.00394745)
(0.142517 -0.00304185 0.000138669)
(0.152601 -0.00119209 0.00494003)
(0.161664 -0.00158857 0.0102768)
(0.155885 -0.00579483 0.00218998)
(0.149119 -0.00980636 0.00619056)
(0.153413 -0.00853929 0.00986678)
(0.162164 -0.00306391 0.011291)
(0.161235 0.00151469 0.0106401)
(0.153366 0.00305138 0.0114614)
(0.137291 0.0021189 0.00536016)
(0.128601 -0.000799663 0.0015152)
(0.129794 -0.0048352 -0.00283665)
(0.130363 -0.00778543 -0.00393403)
(0.144098 -0.00866387 -0.010364)
(0.144538 -0.00955547 -0.0110486)
(0.136983 -0.0116514 -0.0110365)
(0.128145 -0.0131053 -0.00883131)
(0.122344 -0.0127493 -0.00390926)
(0.127311 -0.0105553 -0.00120202)
(0.135766 -0.00587139 0.00314814)
(0.137911 0.000164908 0.00686454)
(0.133928 0.00403021 0.00943998)
(0.124841 0.00393259 0.00867153)
(0.119692 0.00115959 0.00920145)
(0.117004 -0.0016637 0.00671187)
(0.120881 -0.0019517 0.00371163)
(0.135829 0.000981497 0.00118404)
(0.143601 0.00414263 -0.00275262)
(0.150444 0.00350718 -0.00570055)
(0.15478 -0.000942147 -0.0101393)
(0.150066 -0.00530459 -0.00813449)
(0.148899 -0.00783623 -0.0101888)
(0.146177 -0.0107993 -0.00769656)
(0.150661 -0.0139068 -0.00543734)
(0.156701 -0.014432 -0.000617389)
(0.157866 -0.0104223 0.00301514)
(0.157898 -0.00425787 0.00719059)
(0.154052 -4.62289e-05 0.00943172)
(0.146386 0.000517503 0.00618538)
(0.149365 -0.00139493 0.0130605)
(0.143302 -0.00318121 0.0073467)
(0.145822 -0.00349314 0.00338097)
(0.15665 -0.00365189 0.00025094)
(0.158129 -0.00591989 -0.00366718)
(0.151734 -0.00966978 -0.00640835)
(0.151084 -0.0106247 -0.0108939)
(0.156404 -0.006346 -0.011965)
(0.158781 -0.000161077 -0.00995411)
(0.155585 0.00389629 -0.00941426)
(0.142036 0.0046502 -0.00355455)
(0.137882 0.00205564 0.000158881)
(0.130977 -0.00341706 0.00319603)
(0.134888 -0.00891092 0.00603791)
(0.143903 -0.0104239 0.00116408)
(0.157904 -0.0090679 0.00621884)
(0.147672 -0.00935534 0.00411148)
(0.143156 -0.0110595 0.0128807)
(0.132781 -0.0111004 0.0111191)
(0.128456 -0.00872883 0.00724967)
(0.129783 -0.00433428 0.00399257)
(0.131084 0.00119098 0.000911699)
(0.134987 0.00521857 -0.00224796)
(0.13104 0.00552527 -0.00513536)
(0.128466 0.00272843 -0.00834133)
(0.124072 -0.000493586 -0.00679618)
(0.127611 -0.00147939 -0.00865888)
(0.132938 0.000392029 -0.00746995)
(0.139922 0.00283995 -0.00419638)
(0.151096 0.00291804 -0.00119633)
(0.159457 0.000253896 0.00255507)
(0.15903 -0.00301782 0.00485002)
(0.15408 -0.00565484 0.00627599)
(0.152326 -0.00928017 0.0101982)
(0.150296 -0.0135028 0.00778804)
(0.160779 -0.0140929 0.007749)
(0.157725 -0.0114617 0.00324603)
(0.156835 -0.00651687 0.000993814)
(0.153066 -0.00202221 -0.00354148)
(0.147121 0.000395752 -0.0049257)
(0.149211 0.000160908 -0.00963991)
(0.144041 -0.00209297 -0.00642718)
(0.14912 -0.00449298 -0.00947813)
(0.153169 -0.00554866 -0.00616582)
(0.158039 -0.00624712 -0.00405269)
(0.153107 -0.00841629 -0.000428217)
(0.150604 -0.0103746 0.00395139)
(0.144936 -0.00830285 0.00608396)
(0.143402 -0.00259482 0.00743907)
(0.140714 0.00256798 0.00903601)
(0.138074 0.00479948 0.00989502)
(0.136092 0.00377632 0.00676916)
(0.135298 -0.000813 0.00305183)
(0.133569 -0.00783142 0.000102231)
(0.147378 -0.0121433 -0.00408293)
(0.158048 -0.0103155 -0.005362)
(0.161581 -0.00731109 -0.00656064)
(0.150152 -0.00754057 -0.00693599)
(0.139791 -0.00804713 -0.0100219)
(0.132471 -0.00573533 -0.00749536)
(0.129975 -0.00147345 -0.00287724)
(0.136035 0.0028045 0.000122077)
(0.138264 0.00558603 0.00335792)
(0.138581 0.00568177 0.00607269)
(0.134323 0.00328794 0.0010647)
(0.13469 0.000445628 0.00362128)
(0.135564 -0.000413785 0.00538554)
(0.137657 0.000751538 0.00659147)
(0.140529 0.00124578 0.00595847)
(0.148124 -6.02161e-06 0.00517929)
(0.158443 -0.00115969 0.00378028)
(0.161965 -0.00165305 0.000994181)
(0.159199 -0.00324546 -0.00138657)
(0.153857 -0.00740805 -0.00270087)
(0.153452 -0.0123299 -0.00394153)
(0.163119 -0.0117709 -0.00606484)
(0.160873 -0.0101373 -0.00563736)
(0.154345 -0.00717813 -0.00492727)
(0.148191 -0.00368567 -0.00348158)
(0.143911 -0.000199374 -0.000686902)
(0.145079 0.00136984 0.00167836)
(0.146603 -0.000499723 0.00412225)
(0.148648 -0.00428506 0.00573869)
(0.151893 -0.00662376 0.00581154)
(0.15539 -0.00643315 0.00612677)
(0.152925 -0.00619846 0.00495004)
(0.144112 -0.00716926 0.00270035)
(0.136303 -0.00680624 0.000661527)
(0.129682 -0.00340197 -0.00186699)
(0.128382 0.000855732 -0.00457068)
(0.128768 0.00343948 -0.00497163)
(0.134583 0.00372072 -0.00649267)
(0.138853 0.00106035 -0.00619481)
(0.1403 -0.00549454 -0.00509103)
(0.143355 -0.0127909 -0.00301343)
(0.153325 -0.0138956 -0.000346203)
(0.161597 -0.00891489 0.00168889)
(0.15722 -0.00525086 0.00449281)
(0.141762 -0.00452444 0.0055044)
(0.131942 -0.00280761 0.00702484)
(0.129234 0.00082456 0.00583528)
(0.132078 0.00398558 0.00392592)
(0.136211 0.00517186 0.00232374)
(0.136465 0.00438141 0.000109381)
(0.137954 0.00216903 -0.00243544)
(0.139629 -0.000116047 -0.00479766)
(0.141389 -0.000615966 -0.00500454)
(0.145843 0.000495132 -0.00736562)
(0.144314 0.000305728 -0.0038259)
(0.146622 -0.00189735 -0.00278467)
(0.154954 -0.00275871 -0.00254359)
(0.160995 -0.00127087 8.54515e-05)
(0.161504 -0.00129192 0.00197444)
(0.160213 -0.00526119 0.00309403)
(0.160232 -0.0101123 0.000854059)
(0.16468 -0.00856117 0.00154819)
(0.165731 -0.00763003 0.00433872)
(0.157437 -0.0063495 0.00351706)
(0.147846 -0.00431272 0.00313763)
(0.144301 -0.000619353 0.00439984)
(0.145025 0.00234052 0.00349985)
(0.145213 0.00130107 0.000682449)
(0.147607 -0.00292038 -0.000868608)
(0.149849 -0.00614491 -0.00197694)
(0.153347 -0.00607303 -0.00447104)
(0.150806 -0.00456348 -0.00418648)
(0.144558 -0.0039281 -0.00416417)
(0.136036 -0.00337919 -0.0036044)
(0.128977 -0.00150101 -0.00192414)
(0.126113 0.000796494 -0.000285046)
(0.131142 0.00202869 0.0011388)
(0.137073 0.00234002 0.00309975)
(0.140651 0.00141733 0.00299436)
(0.145502 -0.00316058 0.00479795)
(0.146648 -0.0113397 0.0031906)
(0.152887 -0.0162518 0.00341005)
(0.158183 -0.0124511 0.00165577)
(0.154622 -0.00541318 0.000255858)
(0.145407 -0.00150807 -0.00162093)
(0.13352 0.000494169 -0.00286262)
(0.127486 0.0027551 -0.0025091)
(0.127409 0.00467247 -0.00244377)
(0.128424 0.00522753 -0.00252723)
(0.128216 0.00405115 -0.00194707)
(0.128771 0.00138033 -0.00108309)
(0.134577 -0.00128162 -0.000282991)
(0.14052 -0.00178216 0.00179168)
(0.144946 -0.000266562 0.00383186)
(0.145034 0.000265069 0.00421904)
(0.143229 -0.00144257 0.0030365)
(0.146147 -0.00264208 0.00392115)
(0.150359 -0.00166237 0.00180064)
(0.15853 -0.00113446 0.00132861)
(0.165592 -0.00359959 0.000130963)
(0.16606 -0.00721022 -0.00181698)
(0.168746 -0.00510589 -0.00229402)
(0.169989 -0.00490234 -0.00407289)
(0.164352 -0.00455192 -0.00445873)
(0.152846 -0.00339433 -0.00321036)
(0.144867 -0.000277641 -0.00285731)
(0.142373 0.00292023 -0.00148148)
(0.144199 0.0026266 4.22755e-05)
(0.149562 -0.00129627 0.00218019)
(0.150089 -0.00499457 0.00292744)
(0.148472 -0.00562794 0.00046062)
(0.145848 -0.00402143 0.000975985)
(0.142296 -0.00225918 0.0022516)
(0.137025 -0.000917559 0.00280656)
(0.134014 0.000332128 0.0028929)
(0.134331 0.00116263 0.00203596)
(0.136889 0.00110661 0.00125868)
(0.13953 0.000801181 0.00038485)
(0.142424 0.000799937 -0.000510892)
(0.145767 -0.000927314 -0.0011622)
(0.148474 -0.00689489 -0.00154383)
(0.151403 -0.0135452 -0.00185267)
(0.155474 -0.0132292 -0.00233411)
(0.154444 -0.00620706 -0.00158536)
(0.146465 0.000598844 -0.000768616)
(0.13753 0.00437255 -0.000284267)
(0.131116 0.00584924 0.000682493)
(0.127082 0.00571062 0.0012583)
(0.125797 0.00441477 0.00226595)
(0.125381 0.00223219 0.00235829)
(0.127155 -0.00079025 0.00177533)
(0.132421 -0.00376157 0.00185968)
(0.13798 -0.00443656 0.00121975)
(0.141363 -0.00195991 0.000238932)
(0.142158 0.000942917 -0.000805432)
(0.142392 0.00133307 -0.00221312)
(0.142387 2.93688e-05 -0.00248719)
(0.145721 -0.000744746 -0.00200503)
(0.15355 -0.0011683 -0.00183929)
(0.161685 -0.0024641 -0.00173645)
(0.166533 -0.0042457 -0.00134318)
(0.168586 -0.00273279 -0.000129271)
(0.170349 -0.00245926 0.000804842)
(0.166535 -0.00216309 0.00159165)
(0.157034 -0.00100275 0.00199081)
(0.147767 0.00156353 0.00204836)
(0.14313 0.00367021 0.00185529)
(0.142395 0.00285303 0.00126195)
(0.143737 -0.000460437 0.000758567)
(0.145823 -0.00320399 6.66313e-05)
(0.145785 -0.00348786 -0.00109541)
(0.142931 -0.00234367 -0.0010165)
(0.141625 -0.00117661 -0.00210886)
(0.140319 -0.000202178 -0.00235655)
(0.140749 0.000284975 -0.00192646)
(0.143644 -0.000262657 -0.002314)
(0.142605 -0.00147443 -0.000745256)
(0.140874 -0.00186412 2.51033e-05)
(0.14025 -0.000552428 0.00087423)
(0.142453 0.000168067 0.00148579)
(0.146151 -0.00366853 0.000289891)
(0.150022 -0.0105876 0.000855467)
(0.151659 -0.0124603 0.000680203)
(0.151078 -0.00587525 0.00134001)
(0.144752 0.00293244 0.00104904)
(0.136722 0.00792306 0.00107878)
(0.129768 0.00832647 0.000584248)
(0.125922 0.00617733 0.000202778)
(0.124233 0.00382624 -0.000285323)
(0.124637 0.00234801 -0.000779246)
(0.126921 0.000882082 -0.000986207)
(0.13128 -0.00154851 -0.00110413)
(0.136065 -0.00332881 -0.000934297)
(0.13934 -0.00191264 -0.000830588)
(0.140467 0.00173067 -0.000597999)
(0.140665 0.00395681 -0.00011665)
(0.142677 0.00347619 0.000413599)
(0.145515 0.00174079 0.000670855)
(0.151438 -0.000159353 0.00103272)
(0.158675 -0.00178309 0.00141917)
(0.163561 -0.00266462 0.000741741)
(0.167499 -0.00140499 0.00101757)
(0.168259 0.000178443 0.000569318)
(0.165898 0.000882574 0.000139569)
(0.161004 0.00130526 -0.000467794)
(0.155625 0.00281658 -0.000735459)
(0.151446 0.00448176 -0.000778899)
(0.148288 0.00371095 -0.00148315)
(0.144241 0.000290096 -0.00119365)
(0.140999 -0.00286353 -0.000651465)
(0.140074 -0.0033711 -0.000391679)
(0.141381 -0.0020322 -5.83047e-05)
(0.144267 -0.000658296 0.000242704)
(0.149051 0.000308274 0.000796846)
(0.152386 0.000597014 0.00081572)
(0.152623 -0.000414961 0.00102269)
(0.148433 -0.0018218 0.00090919)
(0.142552 -0.00158771 0.000602236)
(0.139723 0.000692961 0.000504535)
(0.141139 0.00253736 2.17246e-05)
(0.145644 0.000280997 -0.000305789)
(0.149911 -0.00601412 -0.000905192)
(0.150985 -0.0097437 -0.00101036)
(0.149202 -0.00510156 -0.000995454)
(0.144251 0.00427462 -0.000916986)
(0.137698 0.0107739 -0.00081646)
(0.131971 0.011894 -0.000254687)
(0.129859 0.00952751 1.16693e-05)
(0.129813 0.00621244 0.000528926)
(0.129911 0.00362651 0.000791811)
(0.130261 0.00202713 6.05518e-05)
(0.132833 0.00078152 0.000322803)
(0.136043 7.32278e-05 0.000383048)
(0.139177 0.000892363 0.000295086)
(0.141655 0.00303246 0.00037082)
(0.143062 0.00468095 0.000343579)
(0.143766 0.0044719 0.00018426)
(0.145174 0.00249003 5.37072e-05)
(0.148887 -0.000337151 -7.8986e-05)
(0.15533 -0.00247388 -0.000216905)
(0.162398 -0.00273762 -0.000506509)
(0.164185 -0.0039661 -0.000444766)
(0.164187 0.000397089 -0.00038636)
(0.161114 0.00323432 -0.000434528)
(0.156378 0.0036835 -0.000204653)
(0.152965 0.00383929 -5.72529e-05)
(0.152047 0.0047488 0.000131064)
(0.152182 0.00484957 0.0002797)
(0.15091 0.00264371 0.000417322)
(0.147079 -0.00111448 0.000353605)
(0.14287 -0.00452152 0.000520349)
(0.140453 -0.006888 0.000307573)
(0.142398 -0.00842109 0.00026988)
(0.148129 -0.0083788 4.14879e-05)
(0.155108 -0.0059843 -0.000174984)
(0.15769 -0.00251451 -0.000271064)
(0.153923 -5.38301e-05 -0.000370215)
(0.146635 0.00168611 -0.000455685)
(0.140787 0.0040025 -0.000464162)
(0.139096 0.00560882 -0.000249373)
(0.141279 0.0040622 -0.000221538)
(0.144558 -0.000714415 -2.30789e-05)
(0.147506 -0.0053715 0.00014613)
(0.148093 -0.00507972 0.000388084)
(0.14556 0.00108927 0.000314505)
(0.142576 0.00856696 0.000463199)
(0.14098 0.0128008 0.000365085)
(0.141196 0.0127623 0.000280956)
(0.14145 0.00989535 0.000246006)
(0.14021 0.00630322 1.11411e-05)
(0.138776 0.00353873 -0.000133289)
(0.138418 0.00204161 -0.000302698)
(0.138985 0.00162076 -0.000429724)
(0.139641 0.00213325 -0.000364286)
(0.140012 0.00305594 -0.000280587)
(0.140523 0.00349983 -0.000285968)
(0.141607 0.00313449 -0.000174224)
(0.14401 0.00179295 6.05287e-06)
(0.148391 -0.00105643 0.000200517)
(0.154433 -0.00467251 0.000318912)
(0.160205 -0.00627154 2.73073e-05)
(0.156574 -0.000213691 9.65086e-05)
(0.152091 0.00407605 0.000119008)
(0.147684 0.00639446 0.000141127)
(0.144832 0.00594462 0.000133611)
(0.143852 0.00430451 0.000133966)
(0.144717 0.00302438 7.21817e-05)
(0.147324 0.00220906 2.04676e-05)
(0.150995 0.0012182 -3.12004e-05)
(0.154129 -0.000315465 -5.89086e-05)
(0.154875 -0.00233424 -0.00010697)
(0.152647 -0.00493106 -0.000138047)
(0.149404 -0.00816622 -0.000145816)
(0.148007 -0.0108017 -0.000123948)
(0.149616 -0.0108246 -7.74858e-05)
(0.152234 -0.00776929 -2.05357e-05)
(0.152206 -0.00311372 2.74036e-05)
(0.148587 0.00153718 0.000125329)
(0.143523 0.00487067 0.000128786)
(0.14038 0.00522357 0.0001872)
(0.139959 0.00199974 0.000158453)
(0.14184 -0.0026507 0.000112901)
(0.145428 -0.00532742 6.77931e-05)
(0.148553 -0.00418946 1.9753e-05)
(0.148985 0.000245693 -3.51106e-05)
(0.148244 0.00573867 -8.46346e-05)
(0.148321 0.00981081 -0.000123612)
(0.149041 0.0112821 -0.000112123)
(0.149093 0.0101362 -0.000121428)
(0.148043 0.00687682 -0.000114159)
(0.146415 0.00304612 -6.2959e-05)
(0.144728 0.000957495 -6.87498e-06)
(0.143359 0.00152664 5.58783e-05)
(0.142247 0.0033124 0.000127199)
(0.141148 0.00401748 8.05524e-05)
(0.140674 0.00250767 0.000196682)
(0.141315 -0.000316713 8.78906e-05)
(0.144376 -0.00285178 0.000105742)
(0.149666 -0.00448617 3.93329e-05)
(0.1554 -0.00504479 3.46417e-06)
(0.158176 -0.0037703 -4.82804e-05)