/*--------------------------------*- C++ -*----------------------------------*\
| =========                 |                                                 |
| \\      /  F ield         | OpenFOAM: The Open Source CFD Toolbox           |
|  \\    /   O peration     | Version:  2.3.0                                 |
|   \\  /    A nd           | Web:      www.OpenFOAM.org                      |
|    \\/     M anipulation  |                                                 |
\*---------------------------------------------------------------------------*/
FoamFile
{
    version     2.0;
    format      ascii;
    class       volScalarField;
    location    "200";
    object      nuSgs;
}
// * * * * * * * * * * * * * * * * * * * * * * * * * * * * * * * * * * * * * //

dimensions      [0 2 -1 0 0 0 0];

internalField   nonuniform List<scalar> 
60000
(
2.24217e-07
1.39802e-07
5.70081e-08
3.35346e-08
3.19375e-08
-2.69453e-10
-4.01031e-08
-5.7776e-10
8.11176e-08
1.74869e-07
2.54698e-07
4.00086e-07
5.23642e-07
4.31403e-07
2.4157e-07
7.91503e-08
3.0775e-08
-4.6841e-09
-1.02548e-07
-2.12597e-07
-2.78527e-07
-2.94435e-07
-2.51948e-07
-1.62215e-07
-9.92141e-08
-9.52412e-08
-9.98391e-08
-5.74754e-09
2.61e-07
6.1248e-07
7.9607e-07
7.85736e-07
5.37794e-07
1.64089e-07
-8.27996e-08
-1.54573e-07
-1.41917e-07
-9.23277e-08
2.7422e-08
1.79072e-07
2.73288e-07
1.51075e-07
3.35755e-08
7.02733e-09
1.019e-08
-1.65965e-09
-2.52622e-08
1.75057e-08
9.65886e-08
1.99546e-07
3.17903e-07
5.73954e-07
7.92136e-07
6.3875e-07
3.38113e-07
1.04086e-07
5.32754e-08
2.84259e-08
-1.22627e-07
-3.11939e-07
-4.28885e-07
-4.6861e-07
-4.07041e-07
-2.78326e-07
-1.90605e-07
-1.59995e-07
-1.25514e-07
5.35064e-08
4.88007e-07
1.07498e-06
1.39815e-06
1.30141e-06
8.15362e-07
2.32252e-07
-1.26246e-07
-2.22165e-07
-2.0528e-07
-1.50551e-07
1.12342e-09
2.09816e-07
2.64051e-07
1.07939e-07
-5.7983e-08
-1.00689e-07
-1.01305e-07
-4.42979e-08
2.75418e-08
5.4343e-08
3.61496e-08
5.58843e-08
2.0032e-07
6.39693e-07
1.03357e-06
8.31565e-07
4.14173e-07
7.60468e-08
3.47084e-08
1.01693e-07
-4.40288e-08
-3.54982e-07
-5.83153e-07
-6.75709e-07
-5.83947e-07
-4.3116e-07
-3.48407e-07
-2.9619e-07
-1.93676e-07
1.14617e-07
6.90388e-07
1.55613e-06
2.20225e-06
2.16559e-06
1.40376e-06
4.45209e-07
-1.76253e-07
-3.13909e-07
-2.6859e-07
-2.20194e-07
-8.10659e-08
1.62015e-07
2.11791e-07
-3.22657e-09
-2.43231e-07
-3.39435e-07
-3.48989e-07
-2.15385e-07
8.47843e-08
1.34319e-07
-1.47195e-07
-3.89839e-07
-3.04042e-07
4.19074e-07
1.2293e-06
9.60237e-07
3.63564e-07
-1.11843e-07
-1.54985e-07
4.32992e-08
7.69558e-08
-2.02431e-07
-5.25209e-07
-7.23341e-07
-5.91196e-07
-3.37338e-07
-3.9995e-07
-5.37511e-07
-3.63519e-07
4.58728e-08
6.41676e-07
1.5103e-06
2.61435e-06
3.11949e-06
2.26113e-06
8.85868e-07
-1.14032e-07
-3.87003e-07
-3.00523e-07
-1.86954e-07
-4.61554e-08
1.3924e-07
4.95206e-07
2.08791e-08
-4.64688e-07
-7.0164e-07
-7.11009e-07
-5.27089e-07
1.76944e-08
4.78463e-07
-1.70812e-07
-2.38324e-06
-2.40246e-06
-4.63834e-07
1.62663e-06
1.56884e-06
5.17188e-07
-3.38694e-07
-4.76884e-07
-2.81824e-07
-8.50009e-08
-7.91904e-08
-2.12689e-07
-4.5734e-07
-5.27422e-07
-9.53895e-08
1.76741e-07
-3.56696e-07
-8.01155e-07
-2.54468e-07
4.78596e-07
1.22387e-06
2.44166e-06
3.86534e-06
3.44898e-06
1.68642e-06
2.27811e-07
-3.77485e-07
-4.8343e-07
-3.14284e-07
1.26357e-07
5.33563e-07
1.49685e-06
6.61899e-07
-4.89803e-07
-9.09825e-07
-9.8532e-07
-6.73575e-07
-4.0549e-07
4.79322e-07
6.97781e-07
-1.27799e-06
-1.43178e-05
-8.44642e-06
9.01298e-07
2.65601e-06
1.38296e-06
2.55231e-09
-6.17058e-07
-6.14482e-07
-5.25181e-07
-3.57236e-07
7.33799e-08
4.15126e-07
3.56098e-07
2.63427e-07
9.20831e-07
8.07297e-07
-2.93074e-07
-7.16537e-07
6.76802e-08
8.98205e-07
1.74618e-06
4.23126e-06
5.51286e-06
3.76188e-06
1.36252e-06
-5.83957e-08
-8.34148e-07
-1.20484e-06
-2.1679e-07
1.1204e-06
3.13789e-06
2.29337e-06
2.52427e-07
-9.42029e-07
-6.59477e-07
-7.97375e-07
-7.68069e-07
-1.73865e-07
4.00915e-07
-1.28648e-07
-2.76235e-06
-2e-05
-6.9941e-06
2.01305e-06
1.84613e-06
8.31613e-07
-6.5092e-09
-5.55321e-07
-8.92166e-07
-8.44397e-07
-1.89647e-07
1.15688e-06
1.97774e-06
1.31526e-06
1.67361e-06
2.70774e-06
1.25018e-06
-1.62019e-07
-2.3294e-07
3.59472e-07
1.03807e-06
2.90872e-06
6.6845e-06
7.15577e-06
4.07314e-06
9.6024e-07
-9.51043e-07
-2.09857e-06
-1.62861e-06
1.37039e-06
4.20645e-06
4.49239e-06
2.47579e-06
-2.83505e-07
-3.86721e-07
3.34076e-08
-1.3159e-06
-8.2446e-07
-2.44559e-07
-3.19843e-07
1.97387e-07
-1.0458e-06
-1.41378e-05
1.08272e-06
1.82719e-06
8.2843e-07
4.73753e-07
-4.06506e-07
-1.08392e-06
-1.17572e-06
-6.5601e-07
9.85355e-07
2.89239e-06
2.90742e-06
1.69579e-06
3.19743e-06
3.38812e-06
8.44269e-07
-3.53182e-07
-2.59562e-07
3.85686e-07
2.15808e-06
4.27319e-06
7.34516e-06
6.69114e-06
2.99911e-06
-5.01362e-07
-2.55638e-06
-2.13028e-06
8.07511e-07
3.58183e-06
5.71791e-06
4.93753e-06
2.03699e-06
1.26764e-07
2.9508e-07
-9.02761e-07
-8.74398e-07
-4.12612e-07
-6.41923e-07
3.25565e-07
2.18732e-06
3.07416e-06
7.79004e-06
6.85607e-06
1.61931e-06
8.03836e-07
5.04778e-08
-1.58692e-06
-1.9811e-06
-1.18015e-06
4.6912e-07
2.75848e-06
5.13504e-06
3.0673e-06
2.51078e-06
4.39931e-06
4.11471e-06
7.44661e-07
-2.50098e-06
-1.35357e-06
1.69682e-06
3.60301e-06
3.99983e-06
5.43126e-06
3.97306e-06
7.60882e-07
-1.3796e-06
-2.12528e-06
-3.02241e-07
1.12495e-06
4.74142e-06
6.53033e-06
4.36024e-06
1.51804e-06
-1.70675e-08
-1.15494e-06
-1.1095e-06
6.16112e-07
-4.35284e-07
-3.42005e-07
5.73169e-08
1.74481e-06
7.42032e-06
1.15997e-05
7.38863e-06
2.97913e-06
1.78257e-06
-1.54681e-06
-3.34825e-06
-2.46665e-06
5.46804e-09
1.81101e-06
4.61713e-06
9.76216e-06
2.83023e-06
6.06858e-06
1.04629e-05
6.76451e-06
-2.33625e-06
-4.76306e-06
-7.42246e-07
8.35716e-06
1.90762e-06
1.99284e-06
1.90893e-06
7.65523e-07
1.22113e-06
7.24023e-07
-3.20326e-07
-4.79119e-07
1.33888e-06
5.03422e-06
5.63865e-06
4.1042e-06
1.80596e-06
-1.32304e-06
-3.21179e-06
-7.14011e-07
1.35813e-06
-6.25844e-07
-2.76663e-06
-3.42066e-06
2.003e-06
5.65285e-06
1.0312e-05
8.17676e-06
6.58739e-06
1.42819e-06
-3.28671e-06
-3.84351e-06
-1.76092e-06
1.03995e-06
5.2516e-06
6.95603e-06
4.47485e-06
2.72459e-06
9.8682e-06
1.19195e-05
-5.02789e-07
-5.90606e-06
-9.2394e-06
1.0751e-05
9.9106e-06
4.25976e-06
2.12542e-06
-4.51703e-07
-3.68882e-07
3.25626e-06
4.95645e-06
3.08702e-06
-3.44356e-06
1.42924e-06
4.34591e-06
8.0831e-06
6.4285e-06
1.20059e-06
-2.48157e-06
-2.91142e-06
-1.53102e-07
-4.2312e-07
-2.07918e-06
-6.92259e-06
-5.43598e-06
2.93874e-06
4.64711e-06
7.44366e-06
4.53983e-06
2.531e-07
-2.95092e-06
-3.62384e-06
-2.41262e-06
4.01025e-07
2.67316e-06
3.97057e-06
3.21832e-06
2.63291e-06
2.90096e-06
7.46698e-06
1.31765e-06
-4.8325e-06
-9.85633e-06
1.42731e-06
1.23155e-05
9.80206e-06
3.02389e-06
-5.66162e-07
-4.77567e-06
-4.00357e-06
2.37751e-06
-3.10211e-06
-2.21481e-06
-7.97795e-06
-5.98837e-06
1.23983e-05
2.15153e-05
1.01568e-05
2.53963e-06
3.34208e-06
6.16555e-06
4.21175e-06
1.16491e-06
-2.46444e-06
-3.47467e-06
-4.55843e-06
3.29619e-06
5.46821e-06
5.5655e-06
-1.81987e-07
-1.00717e-06
-2.20966e-06
-2.7803e-06
-1.92559e-06
2.50597e-06
3.86199e-06
3.48886e-06
3.71385e-06
2.80744e-06
2.55451e-06
5.32325e-06
2.88438e-07
-4.94158e-06
-5.98724e-06
4.00623e-06
9.56132e-06
5.62435e-06
2.20825e-06
8.04949e-08
-6.16567e-06
-2.91691e-06
-2.24989e-06
8.59485e-08
-8.25352e-06
-1.94058e-05
4.24634e-06
1.37678e-05
8.49122e-06
-7.51141e-07
5.16891e-06
1.63256e-05
1.74278e-05
8.25698e-06
1.07741e-06
2.17305e-06
-2.42935e-07
-6.20157e-07
5.08877e-06
4.48424e-06
2.40788e-06
6.00278e-06
4.0436e-06
-2.46936e-06
-3.03165e-06
1.41482e-06
2.50456e-06
1.66138e-06
3.28142e-06
4.22735e-06
2.3524e-06
5.00019e-06
6.48038e-06
4.14921e-06
-1.2071e-06
-3.38319e-06
7.06285e-06
8.86072e-06
5.38294e-06
3.01547e-06
-1.50599e-06
-2.78459e-06
1.67715e-06
6.97707e-06
2.10191e-06
-1.09675e-05
-4.05862e-07
2.03091e-05
3.62642e-06
-5.95222e-06
-4.7018e-06
1.21572e-05
2.25048e-05
1.44316e-05
3.76765e-06
2.01136e-06
4.17078e-06
4.16708e-06
3.91972e-06
4.48207e-06
2.44756e-06
3.88701e-06
7.07635e-06
3.14807e-06
-3.14207e-07
9.59744e-07
2.36931e-06
1.53574e-06
3.09467e-06
4.73297e-06
5.00616e-06
3.25581e-06
4.40052e-06
7.88849e-06
5.43073e-06
-5.87907e-06
2.80703e-06
7.50924e-06
7.14073e-06
2.25558e-06
1.5944e-06
4.69441e-07
1.47764e-07
5.55747e-06
5.9575e-06
4.90612e-06
7.09272e-06
1.44243e-05
4.67182e-06
-1.79206e-05
-2e-05
-1.94741e-06
6.69086e-06
8.85887e-06
4.11039e-06
3.6017e-06
3.35674e-06
3.00833e-06
1.02766e-06
1.29387e-06
4.62365e-06
9.69457e-06
1.43691e-05
1.51012e-05
9.13635e-06
1.86135e-06
2.91583e-06
2.49002e-06
4.02027e-06
5.09647e-06
5.53726e-06
3.32983e-06
3.62383e-06
9.49638e-06
1.44819e-05
3.89143e-06
3.57276e-06
6.80264e-06
5.83832e-06
3.11698e-06
-3.39151e-06
-1.41252e-07
-3.53357e-06
3.74453e-06
1.00147e-05
9.91016e-06
7.71056e-06
2.60373e-06
-6.71014e-07
-4.61644e-06
-1.84149e-05
-2e-05
-4.88332e-06
2.18336e-06
2.98172e-06
5.28243e-06
6.21861e-06
1.74349e-06
-4.23805e-06
-3.10285e-06
2.46822e-06
7.96425e-06
1.35279e-05
1.40656e-05
6.86107e-06
3.26094e-06
3.38958e-06
6.89408e-06
9.54241e-07
-2.52137e-06
-1.2945e-06
1.50822e-06
2.81611e-06
7.71514e-06
1.75003e-05
1.73323e-05
6.95596e-06
7.92582e-06
1.12331e-05
6.43187e-06
1.47033e-06
-1.15268e-06
-3.24442e-06
3.77662e-06
1.0703e-05
9.31098e-06
6.03286e-06
4.60151e-06
-6.37556e-06
-3.37124e-06
-7.24841e-06
-1.42634e-05
-5.20569e-06
1.83719e-06
5.97248e-06
1.02706e-05
1.26296e-05
8.68292e-06
6.72979e-06
6.18384e-06
5.30299e-06
5.57875e-06
5.40688e-06
4.37202e-06
6.75562e-06
4.53378e-06
4.74613e-06
5.35208e-06
3.33838e-06
3.01734e-07
-2.4996e-06
2.39995e-06
6.66413e-06
6.49407e-06
1.20998e-05
2.03196e-05
1.87347e-05
1.05691e-05
7.0834e-06
8.55442e-06
8.99157e-06
1.05407e-06
6.2999e-07
4.78642e-06
1.22659e-05
1.49308e-05
1.08038e-05
5.0801e-06
-3.35972e-06
-3.65852e-06
-4.73033e-06
-5.02318e-06
-3.46385e-06
-7.65339e-07
5.86705e-06
1.01648e-05
1.50634e-05
1.94482e-05
2.26962e-05
1.97808e-05
1.34957e-05
9.87265e-06
7.31294e-06
5.40925e-06
4.90824e-06
6.75172e-06
1.05911e-05
1.02189e-05
9.38221e-06
1.07667e-05
9.31072e-06
6.33691e-06
3.96374e-06
8.47294e-06
6.58295e-06
5.01056e-06
9.18352e-06
7.61193e-06
3.2474e-06
2.01206e-06
5.28864e-06
7.76436e-06
4.62508e-06
8.93743e-06
4.91533e-06
8.32964e-06
8.59574e-06
4.23739e-06
4.11759e-07
-4.98345e-06
-1.0016e-05
-1.14792e-05
-4.23211e-06
3.65272e-06
5.7484e-06
6.28435e-06
7.58234e-06
1.39183e-05
2.30101e-05
2.1951e-05
1.72029e-05
1.58617e-05
1.59364e-05
1.57716e-05
1.46994e-05
1.34688e-05
1.14332e-05
1.13351e-05
1.46603e-05
2.06062e-05
1.87249e-05
4.52167e-06
1.75905e-06
7.90554e-09
-4.97115e-07
-7.7359e-07
2.41271e-06
7.09426e-06
6.54036e-06
4.01683e-06
2.36845e-06
-3.33919e-07
6.26533e-07
3.18047e-06
1.10089e-05
1.48571e-05
1.376e-05
8.28225e-06
-7.39232e-08
-2.68384e-06
-4.36876e-06
-6.3614e-06
-5.06515e-07
5.52281e-06
1.0029e-05
9.85188e-06
5.13664e-06
5.37124e-06
1.16113e-05
1.29234e-05
6.40144e-06
3.90225e-06
8.70974e-06
1.3528e-05
1.42805e-05
1.23829e-05
8.36139e-06
8.59901e-06
1.13846e-05
1.12322e-05
8.24983e-06
5.3209e-06
5.07517e-06
7.24237e-07
2.01346e-06
6.62295e-06
8.7735e-06
7.13269e-06
2.72602e-06
3.32182e-07
3.54635e-08
-8.30349e-07
3.12358e-06
2.66628e-06
3.01603e-06
1.27702e-05
2.14817e-05
1.31211e-05
-7.45356e-07
-7.0022e-06
-2.76619e-06
-2.70852e-06
-1.61392e-06
6.13777e-06
1.34451e-05
1.34744e-05
3.12742e-06
3.76123e-06
1.36114e-05
1.896e-05
1.00065e-05
1.22502e-06
5.86439e-06
7.98255e-06
7.81751e-06
5.79081e-06
2.78594e-06
2.46137e-06
4.43296e-06
3.8783e-06
2.29476e-06
-1.11949e-07
2.39411e-06
8.71619e-07
1.93236e-06
5.00242e-06
2.00786e-06
-3.83629e-06
-1.71174e-06
3.07408e-06
3.53205e-06
3.53882e-06
1.40396e-06
2.8231e-06
2.36365e-06
2.09969e-06
4.66421e-06
7.0702e-07
-4.95244e-06
-1.01e-05
-4.01864e-06
-2.17383e-06
-1.18678e-06
4.854e-06
8.33176e-06
4.1227e-06
-7.82931e-07
-1.80984e-06
5.44572e-06
7.07673e-06
3.72944e-06
-5.97854e-06
-1.50717e-05
-6.38969e-06
1.01899e-07
5.49991e-06
7.80361e-06
1.58936e-06
6.62848e-06
9.23547e-06
3.62957e-06
3.96827e-06
3.93124e-06
4.79635e-06
5.4991e-06
-4.21495e-06
-7.90696e-06
-4.17958e-06
-3.63194e-07
1.31776e-06
1.07059e-07
-3.53226e-07
-1.6547e-07
1.42699e-06
1.32713e-06
2.3157e-06
2.58662e-06
-1.86925e-06
-5.45908e-06
-6.01353e-06
1.95363e-06
2.64732e-06
1.77923e-06
-1.22888e-06
2.00751e-06
6.02308e-06
4.44641e-07
-5.76365e-06
-7.71591e-06
-9.40916e-06
-6.57497e-06
2.82554e-08
2.69702e-06
2.94456e-06
-4.82096e-06
-9.14068e-06
-5.84108e-06
-2.7389e-06
2.75716e-06
4.03462e-06
4.48693e-06
4.73949e-06
3.58337e-06
2.34253e-06
-5.48922e-07
-4.7459e-06
-3.72986e-06
1.05246e-06
2.45286e-06
2.10517e-06
-7.76821e-08
-1.16955e-06
4.4211e-06
4.5993e-06
3.25105e-06
2.6337e-06
2.68628e-06
1.85995e-06
1.95712e-06
2.58792e-06
2.97026e-06
3.57266e-06
2.53078e-06
6.61528e-07
-5.8253e-07
-1.73967e-06
-5.25027e-06
-6.96808e-06
-6.47507e-06
-4.82056e-06
-1.2902e-06
2.83646e-06
3.1361e-06
3.94989e-07
-5.20785e-06
-4.1179e-06
6.27852e-06
1.10985e-05
9.18038e-06
7.86674e-06
5.75305e-06
-8.96195e-07
-2.70194e-06
-8.75072e-07
1.24652e-06
1.17071e-06
3.23355e-06
7.02118e-06
5.56829e-06
1.55012e-06
-4.79317e-07
1.1205e-06
-2.50592e-07
-2.3489e-07
-2.02703e-07
-1.96513e-07
-2.04837e-07
-2.73676e-07
-3.86585e-07
-3.55467e-07
-1.12413e-07
1.94703e-07
4.62757e-07
6.09493e-07
5.52665e-07
3.91519e-07
2.21256e-07
4.20403e-08
-9.14372e-08
-2.02441e-07
-2.6902e-07
-2.51914e-07
-2.02771e-07
-1.71287e-07
-1.01378e-07
-1.19191e-08
8.04228e-09
-3.86966e-08
-7.01314e-08
-1.44579e-08
1.16601e-07
1.74201e-07
9.55519e-08
-1.90392e-09
-5.32591e-08
-4.29608e-08
-1.61451e-08
-2.7152e-08
-6.51891e-08
-8.91408e-08
-1.32657e-07
-1.99866e-07
-4.30346e-07
-4.20425e-07
-3.63183e-07
-3.29056e-07
-3.26847e-07
-4.38984e-07
-6.04817e-07
-5.75523e-07
-2.25958e-07
2.35451e-07
6.43063e-07
9.09917e-07
8.83413e-07
6.35668e-07
3.38841e-07
4.46596e-08
-1.66315e-07
-3.30356e-07
-4.29052e-07
-3.96286e-07
-3.33776e-07
-2.89723e-07
-1.5137e-07
7.08127e-09
-2.86753e-09
-1.06315e-07
-1.68517e-07
-8.85339e-08
1.19347e-07
2.46265e-07
1.70899e-07
-1.32725e-09
-1.12776e-07
-1.03718e-07
-3.64252e-08
-4.98847e-08
-1.2612e-07
-1.75571e-07
-2.42959e-07
-3.4067e-07
-6.90024e-07
-7.06393e-07
-6.31865e-07
-5.17986e-07
-3.94694e-07
-5.93277e-07
-8.63858e-07
-8.75186e-07
-4.60298e-07
1.26502e-07
6.57242e-07
1.06037e-06
1.14837e-06
8.77061e-07
4.6352e-07
3.44861e-08
-2.94313e-07
-5.25216e-07
-6.59276e-07
-5.91872e-07
-4.99299e-07
-4.78394e-07
-2.13924e-07
1.60765e-07
1.36375e-07
-1.31071e-07
-3.39627e-07
-3.10181e-07
-2.36111e-08
2.66531e-07
3.1998e-07
6.64233e-08
-2.10784e-07
-2.24223e-07
-7.26637e-08
-4.95615e-08
-1.65467e-07
-2.75487e-07
-3.91142e-07
-5.36477e-07
-9.36461e-07
-9.80048e-07
-9.42321e-07
-8.24605e-07
-4.05292e-07
-4.21182e-07
-9.27839e-07
-1.00573e-06
-6.52534e-07
-1.3341e-07
4.02126e-07
9.15954e-07
1.12242e-06
8.47588e-07
3.80595e-07
-5.67184e-08
-4.37638e-07
-7.7076e-07
-9.84986e-07
-9.15059e-07
-6.66726e-07
-5.79056e-07
-2.4217e-07
5.37598e-07
8.05753e-07
4.05254e-07
-1.83429e-07
-4.33663e-07
-1.74657e-07
2.18766e-07
4.9143e-07
3.86185e-07
-2.03663e-07
-3.83894e-07
-7.37142e-08
4.15363e-08
-8.5655e-08
-2.60304e-07
-4.75289e-07
-7.15205e-07
-1.29992e-06
-1.32686e-06
-1.15474e-06
-1.10435e-06
-6.47671e-07
-4.33959e-08
-5.10048e-07
-8.66205e-07
-8.19993e-07
-4.43859e-07
-1.15826e-08
4.85032e-07
8.40932e-07
5.21348e-07
6.0484e-09
-3.63155e-07
-5.49429e-07
-8.70098e-07
-1.23006e-06
-1.38667e-06
-1.11157e-06
-6.07779e-07
-2.57042e-07
7.77909e-07
1.85327e-06
1.73203e-06
8.2196e-07
1.35141e-07
1.90921e-07
5.7837e-07
8.51979e-07
9.20932e-07
2.84825e-07
-3.94297e-07
-5.18587e-08
2.38708e-07
1.29483e-07
-8.05752e-08
-4.10731e-07
-8.87457e-07
-1.60039e-06
-1.9566e-06
-1.64699e-06
-1.13945e-06
-7.94835e-07
1.15837e-07
5.28427e-08
-4.82763e-07
-8.02092e-07
-1.32054e-06
-7.76661e-07
2.35621e-08
9.64838e-08
-4.02464e-07
-7.19329e-07
-8.86184e-07
-7.01659e-07
-5.25184e-07
-8.83065e-07
-1.44438e-06
-1.81622e-06
-1.11788e-06
-2.70239e-07
3.03912e-07
1.46924e-06
2.65379e-06
2.4047e-06
1.49711e-06
1.29514e-06
1.66104e-06
1.86114e-06
1.76432e-06
1.15559e-06
3.26873e-07
1.78237e-07
4.5546e-07
3.7267e-07
2.46235e-07
-8.97357e-08
-8.35842e-07
-1.23647e-06
-2.07488e-06
-2.59748e-06
-1.88347e-06
-5.99928e-07
-1.27752e-07
2.18241e-07
3.19671e-07
-2.84659e-07
-8.56539e-07
-1.9843e-06
-1.49771e-07
1.41347e-07
-1.43013e-06
-1.71755e-06
-9.91163e-07
-7.16603e-07
2.11418e-08
6.32303e-08
-5.39067e-07
-1.31707e-06
-1.70492e-06
-2.03502e-07
2.16153e-07
3.27909e-07
1.29379e-06
2.27833e-06
2.43546e-06
2.53266e-06
3.10199e-06
3.38523e-06
2.76646e-06
1.70784e-06
1.36509e-06
9.69628e-07
6.87032e-07
5.69128e-07
6.61925e-07
5.51486e-07
-2.7527e-07
-8.29482e-08
-5.29984e-07
-2.04793e-06
-3.02817e-06
-1.49062e-06
-1.24187e-07
-5.0079e-07
-2.16681e-07
9.44745e-07
8.77385e-07
2.23173e-07
1.04623e-06
7.65865e-06
8.78382e-07
-2.20396e-06
-1.16845e-06
-1.49246e-07
5.87542e-07
9.93014e-07
7.8742e-07
3.60632e-07
-3.64508e-07
1.37322e-07
3.24853e-06
3.19466e-06
7.08387e-07
6.12597e-07
1.11189e-06
1.80736e-06
3.41867e-06
4.50984e-06
3.70486e-06
1.6981e-06
1.35641e-06
2.17451e-06
1.76665e-06
1.31781e-06
1.65524e-06
1.91575e-06
1.00904e-06
8.16011e-07
4.9673e-07
2.88859e-07
-1.47489e-06
-2.36756e-06
-4.018e-07
-7.77524e-07
-2.00193e-06
-9.76542e-07
9.8434e-07
1.38429e-06
1.26959e-06
1.30851e-05
1.44415e-05
3.38906e-06
-1.05647e-06
6.38638e-08
7.08279e-07
4.12253e-07
6.62753e-07
1.44403e-06
1.15468e-06
1.14192e-06
4.82574e-06
8.25408e-06
8.01901e-06
4.54285e-06
9.07651e-07
3.78499e-07
1.21104e-06
3.30691e-06
3.78959e-06
1.66449e-06
6.81361e-07
2.35779e-06
3.64424e-06
3.71041e-06
4.65765e-06
5.68285e-06
3.98267e-06
3.0641e-06
-1.4581e-07
8.28493e-07
7.03917e-07
-6.39479e-07
-6.39795e-07
-1.65114e-06
-3.3825e-06
-2.43206e-06
-2.45329e-06
-5.98753e-07
5.88201e-07
6.63424e-06
1.92984e-05
1.21124e-05
2.78835e-06
1.14986e-06
2.23779e-06
-2.6762e-07
-1.41612e-06
1.70783e-06
3.18769e-06
2.05318e-06
4.01295e-06
7.16013e-06
7.24236e-06
6.37494e-06
4.56727e-06
1.27345e-06
-1.53884e-06
1.23043e-07
1.52793e-06
1.34709e-06
3.30308e-07
1.15559e-06
2.83777e-06
4.40115e-06
6.54083e-06
8.95656e-06
8.22094e-06
5.12055e-06
-8.0236e-08
-1.04734e-06
9.01749e-07
5.18508e-07
-4.21072e-08
-1.70097e-06
-4.76362e-06
-3.10574e-06
-2.64166e-06
-6.81294e-06
-3.5643e-06
-1.18937e-06
1.22658e-05
2.30529e-05
1.67399e-05
9.08694e-06
7.51508e-06
2.41534e-06
-5.33965e-07
1.00507e-06
4.12008e-06
6.40249e-06
3.51226e-07
1.92379e-06
3.22325e-06
1.78153e-06
7.907e-07
1.31518e-06
-4.14346e-07
-3.04615e-06
-4.78071e-06
-3.64728e-06
-2.68343e-06
-2.97271e-08
2.1927e-06
3.27656e-06
5.02794e-06
7.0469e-06
8.8073e-06
3.74198e-06
6.72826e-07
-1.52404e-06
-8.61715e-07
2.4701e-06
1.70023e-06
-4.89319e-08
-2.71605e-06
-3.09968e-06
-2.456e-06
-1.51055e-06
-4.50807e-06
-3.57657e-06
1.05839e-06
1.55338e-05
2.65854e-05
1.90407e-05
7.64974e-06
1.83432e-06
-2.44419e-07
7.42684e-08
1.79549e-06
8.42792e-07
-2.80924e-09
2.03013e-07
1.92834e-06
9.35745e-07
-9.6757e-07
-2.31666e-07
1.43903e-06
-3.19224e-06
-1.83227e-06
-5.30319e-07
-1.29865e-06
1.31594e-06
2.21121e-06
2.08849e-06
2.62538e-06
3.41156e-06
4.40594e-06
-2.98835e-06
-1.06416e-06
1.77393e-06
3.95306e-07
1.48437e-06
2.98132e-06
3.7671e-06
1.61495e-06
1.91268e-06
1.37807e-06
4.14137e-06
3.77051e-06
-1.86854e-06
-8.88283e-07
4.77842e-06
1.85856e-05
3.23841e-05
1.55388e-05
2.41147e-06
5.33063e-07
7.31309e-07
9.61123e-07
9.35829e-08
7.11344e-07
1.09495e-06
2.93749e-06
3.04466e-06
6.75851e-07
2.43338e-07
9.23222e-07
-3.48874e-07
2.45196e-06
1.31334e-05
6.00027e-06
3.33876e-06
2.34558e-06
1.10233e-06
1.86393e-06
1.56222e-06
7.09728e-07
-2.08406e-06
-2.83362e-06
3.2995e-06
4.10312e-06
4.44276e-06
4.59981e-06
3.26952e-06
-3.51431e-06
-5.24481e-08
3.4512e-06
6.69931e-06
9.13835e-06
5.88972e-06
3.95109e-06
7.87128e-06
1.01555e-05
9.9801e-06
1.28001e-05
2.54464e-06
3.26896e-06
2.36349e-06
1.49596e-06
3.77237e-06
6.78556e-06
3.1122e-06
1.45886e-06
5.56645e-06
6.59986e-06
3.3689e-06
-5.31567e-07
-3.28755e-07
4.32822e-06
1.62295e-05
1.61088e-05
1.12232e-05
8.96923e-06
4.16977e-06
1.03522e-06
7.64331e-07
-3.54028e-07
-1.41685e-06
-2.00101e-06
8.03285e-07
5.06466e-06
2.8278e-06
3.94603e-06
2.57866e-06
-1.02552e-05
-7.50722e-06
-1.65099e-06
9.02572e-06
1.20512e-05
1.21182e-05
1.16136e-05
1.32105e-05
1.33099e-05
9.23581e-06
5.50551e-06
2.71229e-06
2.15141e-06
4.82873e-06
5.66569e-06
4.03247e-06
1.11738e-05
1.24434e-05
7.26607e-06
5.63792e-06
6.76286e-06
4.11228e-06
-2.99718e-06
-2.73009e-06
1.442e-06
9.89117e-06
1.6075e-05
1.61827e-05
1.37518e-05
1.02836e-05
4.76513e-06
2.67766e-06
1.04575e-07
-4.01169e-06
-3.18027e-06
-1.61652e-06
-1.95246e-06
-1.23173e-07
3.21487e-06
1.82954e-06
-6.06348e-06
-1.03383e-05
-3.54507e-06
5.47392e-06
1.22122e-05
1.30604e-05
1.33077e-05
1.2846e-05
7.5871e-06
8.63574e-08
1.14785e-06
3.88434e-06
4.17561e-06
8.52507e-06
1.23083e-05
6.22182e-06
4.66784e-06
7.07932e-06
5.46158e-06
3.81666e-06
2.54401e-06
1.74886e-06
-2.6349e-07
-9.96907e-07
3.60531e-06
5.99544e-06
1.11375e-05
1.29451e-05
1.02196e-05
8.90073e-06
6.80279e-06
4.34332e-06
-3.32919e-07
-6.66803e-07
1.36587e-06
1.70922e-06
-2.00123e-06
1.05324e-06
1.99344e-06
2.70922e-06
-5.63712e-07
-2.50014e-06
-8.54666e-06
-5.95229e-07
5.40115e-06
6.28539e-06
8.8427e-06
1.12513e-05
6.32083e-06
1.39074e-06
2.93615e-06
6.42896e-06
4.2264e-06
4.26225e-06
6.06909e-06
5.16578e-06
-1.34245e-06
-1.08152e-06
3.55171e-07
-2.52336e-06
-5.01984e-07
5.6689e-08
-6.60246e-07
1.53727e-06
5.57684e-06
1.24729e-05
1.19504e-05
8.15475e-06
6.29541e-06
7.60438e-06
5.13574e-06
-3.60548e-08
-8.94355e-07
2.08372e-06
8.48514e-06
1.06047e-05
1.22673e-05
1.25449e-05
6.63197e-06
1.80553e-06
-2.18095e-07
-3.84508e-06
-5.47145e-06
-3.23274e-06
-3.86198e-06
1.27196e-06
1.01887e-05
1.96611e-05
1.59858e-05
1.0434e-05
9.76876e-06
9.44051e-06
8.41892e-06
5.52806e-06
4.60725e-06
6.03634e-06
6.06142e-06
8.05817e-06
8.16893e-06
4.63243e-06
1.97963e-06
3.24847e-06
1.95206e-06
2.4719e-06
7.9445e-06
1.99897e-05
2.55316e-05
1.97822e-05
7.88565e-06
1.91258e-06
6.14993e-07
-4.42493e-06
-6.46073e-06
5.6971e-06
1.26997e-05
1.484e-05
1.41306e-05
1.14567e-05
4.69359e-06
1.29427e-06
9.19631e-07
-2.40763e-06
-9.618e-07
1.63337e-06
4.12307e-07
2.32295e-06
7.34188e-06
1.42122e-05
1.83477e-05
2.10389e-05
2.02393e-05
1.58248e-05
1.32839e-05
1.30798e-05
1.38559e-05
1.58465e-05
1.74237e-05
1.72168e-05
1.33953e-05
8.52804e-06
8.72024e-06
1.13106e-05
9.73566e-06
5.48518e-06
8.39079e-06
9.19183e-06
1.43154e-05
1.82918e-05
1.3566e-05
8.17336e-06
5.48919e-06
4.6683e-06
2.16427e-06
4.0218e-06
6.94975e-06
7.87832e-06
8.3788e-06
1.1028e-05
1.06661e-05
5.45406e-06
-1.2149e-06
-7.99759e-06
-2.56014e-06
6.48723e-06
1.42448e-05
1.40066e-05
7.74645e-06
6.08184e-06
6.64184e-06
9.74854e-06
1.17068e-05
9.5609e-06
5.90634e-06
8.32471e-06
1.47156e-05
1.90052e-05
1.87265e-05
1.47066e-05
1.20936e-05
1.11869e-05
1.31135e-05
1.00202e-05
4.18641e-06
8.5775e-08
1.1968e-06
1.37053e-06
1.95824e-06
6.93587e-06
1.07328e-05
1.10171e-05
1.07526e-05
7.97794e-06
3.41979e-06
4.00018e-07
3.87031e-06
9.51158e-06
1.32568e-05
1.04192e-05
6.11378e-06
1.34268e-06
-1.934e-06
-4.32225e-06
-6.42706e-06
1.53127e-07
4.75085e-06
1.20765e-05
1.91349e-05
1.44895e-05
1.20311e-05
1.57004e-05
1.85287e-05
1.13591e-05
-3.77727e-07
5.12563e-06
1.14613e-05
1.19835e-05
8.90852e-06
5.32985e-06
7.17132e-06
1.02516e-05
1.08205e-05
7.61696e-06
4.78651e-07
-2.27331e-06
1.77353e-06
6.76753e-06
8.36854e-06
8.78649e-06
7.86893e-06
5.53219e-06
6.94606e-06
3.97504e-06
-6.89672e-07
1.00028e-06
1.91326e-06
3.29964e-06
7.90966e-06
8.70431e-06
4.80011e-06
-6.59023e-07
-8.42944e-06
-5.89712e-06
-3.79368e-06
8.51303e-07
1.75297e-06
6.08756e-06
1.16702e-05
1.16619e-05
1.14557e-05
1.55324e-05
1.89437e-05
1.38342e-05
6.33076e-06
4.26515e-06
4.7622e-06
6.46485e-06
5.23672e-06
1.72645e-06
1.50978e-06
4.99865e-06
7.00224e-06
6.0781e-06
4.41445e-06
2.18862e-06
1.93088e-06
4.57757e-06
4.77035e-06
4.89499e-06
2.65979e-06
7.55482e-06
4.67911e-06
-5.81704e-07
-1.07784e-06
2.34608e-06
3.26654e-06
2.72318e-06
1.67525e-06
2.93241e-06
3.20825e-06
-1.86997e-06
-6.46181e-06
-4.16845e-07
-5.49325e-07
1.90063e-06
2.76306e-06
2.03257e-06
4.13475e-06
4.59002e-06
6.17804e-06
1.57142e-05
2.01751e-05
1.68057e-05
1.26599e-05
-3.51708e-06
-4.60254e-06
4.43758e-06
4.74302e-06
1.20157e-06
9.21305e-07
5.71185e-06
1.26621e-05
1.82168e-05
1.65895e-05
1.16112e-05
1.01233e-05
9.2319e-06
1.00792e-06
-7.46829e-06
-2.30447e-06
6.41256e-07
7.62908e-07
9.88968e-07
1.59775e-06
2.4076e-06
2.44897e-06
1.30931e-06
4.53124e-07
6.91775e-07
-2.77156e-06
-5.31595e-06
1.31523e-06
8.23137e-06
6.58077e-06
2.50192e-06
-2.76946e-06
-9.66723e-07
2.88358e-06
1.00254e-06
-4.37909e-07
4.09831e-06
5.71494e-06
3.91451e-06
1.8749e-06
4.9236e-07
-2.79521e-06
-7.35193e-06
-1.52442e-06
6.65858e-06
5.96149e-06
5.76159e-06
5.86509e-06
6.92086e-06
7.22043e-06
7.05062e-06
6.04265e-06
3.1954e-06
-8.70464e-07
-1.22489e-06
1.15927e-07
2.03694e-06
3.31261e-06
3.2961e-06
2.54854e-06
3.14055e-06
3.39807e-06
2.89433e-06
2.1166e-06
2.18087e-06
8.88274e-07
1.08025e-06
2.77466e-06
7.87018e-06
1.13253e-05
9.23171e-06
3.48384e-06
-1.61006e-06
-3.26781e-06
-5.99251e-06
-4.26905e-06
3.60897e-06
4.07864e-06
3.16022e-06
4.11411e-06
3.4847e-06
-1.78741e-06
-5.96563e-06
4.85243e-06
1.72211e-05
2.08052e-05
1.55774e-05
1.0367e-05
5.24093e-06
2.51665e-06
2.743e-06
4.33448e-06
4.53777e-06
2.3199e-06
4.26298e-06
6.87523e-06
4.29366e-06
1.26638e-06
1.02871e-06
2.17063e-06
-2.1576e-07
-1.42711e-07
-1.04533e-07
-1.50889e-07
-1.37785e-07
-1.37083e-07
-2.0571e-07
-3.07608e-07
-3.27128e-07
-2.17939e-07
-1.03273e-07
-9.3067e-08
-1.46944e-07
-1.1026e-07
-7.43799e-09
2.51488e-08
-4.1241e-08
-1.66626e-07
-1.84669e-07
-5.73365e-08
-4.05124e-08
-1.74766e-07
-3.01919e-07
-3.98636e-07
-3.9505e-07
-2.40087e-07
-1.67285e-07
-2.27329e-07
-2.39936e-07
-1.93221e-07
-1.89243e-07
-1.91833e-07
-1.34136e-07
-4.30633e-09
1.50996e-07
2.33132e-07
2.02939e-07
1.44166e-07
4.17059e-08
-1.22501e-07
-3.30145e-07
-2.25977e-07
-1.73028e-07
-2.3043e-07
-1.74689e-07
-2.21203e-07
-3.9235e-07
-5.5734e-07
-6.13221e-07
-4.59386e-07
-2.12778e-07
-1.39768e-07
-2.5387e-07
-2.35623e-07
-5.11881e-08
4.17496e-08
-5.1872e-08
-2.50551e-07
-3.50085e-07
-1.76299e-07
-9.58349e-08
-2.75337e-07
-4.59779e-07
-6.40375e-07
-6.93744e-07
-4.62784e-07
-3.00932e-07
-3.65959e-07
-3.95289e-07
-3.42264e-07
-3.39209e-07
-3.15477e-07
-1.87234e-07
1.80047e-08
2.30956e-07
3.56145e-07
3.25118e-07
2.2934e-07
6.33262e-08
-1.89057e-07
-4.60278e-07
-2.81507e-07
-2.28153e-07
-3.35683e-07
-8.6015e-08
1.75624e-08
-4.77973e-07
-8.75827e-07
-1.02323e-06
-8.92557e-07
-5.54003e-07
-3.81866e-07
-5.71258e-07
-5.96553e-07
-2.57674e-07
5.10475e-08
6.99355e-09
-2.70037e-07
-5.65389e-07
-4.5745e-07
-2.14008e-07
-3.48572e-07
-4.86303e-07
-6.88516e-07
-9.70899e-07
-8.5468e-07
-6.02861e-07
-5.94682e-07
-6.14331e-07
-5.50255e-07
-5.32125e-07
-4.96801e-07
-2.81444e-07
6.16924e-08
3.49237e-07
5.17618e-07
5.23471e-07
4.01243e-07
1.4631e-07
-2.52535e-07
-6.44656e-07
-2.88248e-07
-1.61601e-07
-4.73593e-07
-7.53351e-08
6.69846e-07
2.47134e-07
-7.58114e-07
-1.41997e-06
-1.48283e-06
-1.13123e-06
-9.50871e-07
-1.26491e-06
-1.38976e-06
-8.8561e-07
-8.74348e-08
2.24107e-07
-1.8961e-09
-5.75514e-07
-7.30886e-07
-4.34319e-07
-4.74204e-07
-4.87267e-07
-3.94832e-07
-6.90654e-07
-9.97916e-07
-9.64523e-07
-9.25392e-07
-9.18381e-07
-8.20106e-07
-7.09016e-07
-6.4665e-07
-4.45347e-07
4.26174e-08
5.07239e-07
7.80342e-07
8.89057e-07
7.29905e-07
3.45577e-07
-2.94889e-07
-1.03342e-06
-5.47882e-07
-8.52997e-08
-4.05695e-07
-1.93103e-07
1.46851e-06
1.68283e-06
7.3806e-07
-1.14892e-06
-2.18903e-06
-2.10691e-06
-1.93006e-06
-2.33299e-06
-2.53602e-06
-1.86068e-06
-5.13968e-07
5.51112e-07
8.35148e-07
-2.80688e-08
-5.74598e-07
-4.6303e-07
-6.08347e-07
-6.95739e-07
-2.88106e-07
-1.80688e-07
-5.26362e-07
-8.84702e-07
-1.02268e-06
-1.08005e-06
-1.07212e-06
-9.57247e-07
-7.72001e-07
-5.96045e-07
-1.86398e-07
4.56732e-07
1.02902e-06
1.45902e-06
1.37959e-06
8.13667e-07
-2.18208e-07
-1.25742e-06
-1.17077e-06
-3.93775e-07
-2.55328e-07
-1.48621e-07
1.89409e-06
3.76481e-06
2.94512e-06
1.05549e-06
-1.38544e-06
-2.34614e-06
-2.57896e-06
-3.08269e-06
-3.10208e-06
-2.33732e-06
-8.30091e-07
9.02471e-07
2.21757e-06
1.46897e-06
2.91349e-07
1.70224e-07
-1.21271e-07
-4.70946e-07
-4.98243e-07
-1.40257e-07
1.35832e-07
-6.68623e-08
-1.97329e-07
-1.90992e-07
-5.28329e-07
-7.79238e-07
-7.86999e-07
-7.75016e-07
-5.94929e-07
5.56573e-10
8.01983e-07
1.76264e-06
2.22435e-06
1.79028e-06
2.87911e-07
-1.01887e-06
-1.33252e-06
-8.93152e-07
-4.36256e-07
1.06302e-07
1.04475e-06
4.80744e-06
6.20309e-06
3.57987e-06
1.38223e-06
-1.29421e-07
-1.93091e-06
-2.73364e-06
-2.25774e-06
-1.40044e-06
-7.74394e-08
1.79862e-06
3.91574e-06
3.8256e-06
2.3806e-06
1.75678e-06
1.16349e-06
5.76419e-07
1.08148e-07
-2.53275e-09
-1.0703e-07
1.09595e-07
6.34143e-07
1.28469e-06
1.28433e-06
8.70815e-07
9.26e-08
-6.35116e-07
-7.809e-07
-7.41994e-07
1.69888e-07
1.49473e-06
2.45859e-06
2.82169e-06
1.58737e-06
-9.40254e-08
-1.41438e-06
-1.04761e-06
-8.26334e-07
4.73936e-07
5.98776e-07
2.11018e-06
5.79693e-06
5.7684e-06
4.33845e-06
2.49598e-06
6.10671e-07
-1.25771e-06
-9.74534e-07
-6.86794e-08
9.73889e-07
3.00739e-06
5.6202e-06
6.18942e-06
5.35773e-06
5.04814e-06
3.60166e-06
2.26763e-06
1.95062e-06
1.5362e-06
5.19121e-07
1.0237e-07
2.25004e-07
1.03904e-06
1.77074e-06
1.77016e-06
1.46953e-06
6.35711e-07
-4.76072e-07
-3.23923e-07
3.47106e-07
2.30345e-06
3.975e-06
3.25666e-06
2.94516e-06
9.31248e-07
-1.32974e-06
-9.63817e-07
-8.88272e-07
-8.48309e-07
2.04132e-06
1.17511e-06
1.37157e-06
2.85978e-06
5.36163e-06
5.98692e-06
3.36248e-06
8.39945e-07
2.16715e-06
5.82028e-06
2.09425e-06
2.42271e-06
5.07503e-06
6.3802e-06
6.95619e-06
9.01726e-06
9.37371e-06
6.15957e-06
2.02475e-06
1.38437e-06
1.72746e-06
1.03889e-06
3.00275e-07
2.55499e-08
3.81389e-07
1.48308e-06
2.0105e-06
1.35675e-06
7.04624e-07
3.05483e-07
8.26352e-07
1.89247e-06
5.06002e-06
8.26067e-06
6.56094e-06
9.56478e-07
-1.95824e-06
-2.26074e-06
-2.81525e-07
-4.28903e-07
4.36658e-07
4.51295e-06
4.03861e-07
5.8916e-07
1.87614e-06
3.80998e-06
5.12173e-06
1.79875e-06
2.01405e-06
8.84682e-06
9.10989e-06