/*--------------------------------*- C++ -*----------------------------------*\
| =========                 |                                                 |
| \\      /  F ield         | OpenFOAM: The Open Source CFD Toolbox           |
|  \\    /   O peration     | Version:  2.3.0                                 |
|   \\  /    A nd           | Web:      www.OpenFOAM.org                      |
|    \\/     M anipulation  |                                                 |
\*---------------------------------------------------------------------------*/
FoamFile
{
    version     2.0;
    format      ascii;
    class       volScalarField;
    location    "200";
    object      nuSgs;
}
// * * * * * * * * * * * * * * * * * * * * * * * * * * * * * * * * * * * * * //

dimensions      [0 2 -1 0 0 0 0];

internalField   nonuniform List<scalar> 
90000
(
-2.39109e-08
-2.29014e-08
-2.22636e-08
-1.7701e-08
-1.144e-08
-5.06969e-09
2.64165e-09
8.50024e-09
1.30779e-08
1.61332e-08
1.64783e-08
1.69492e-08
1.6e-08
1.52595e-08
1.45587e-08
1.28006e-08
1.17394e-08
9.96345e-09
9.49733e-09
8.93141e-09
8.21727e-09
7.87995e-09
6.58126e-09
5.26116e-09
4.99017e-09
4.59973e-09
4.37333e-09
3.74303e-09
1.53372e-09
-3.61491e-09
-1.10616e-08
-1.72494e-08
-2.27498e-08
-2.55002e-08
-2.74683e-08
-2.84371e-08
-2.86331e-08
-2.92857e-08
-3.01322e-08
-3.28316e-08
-3.5196e-08
-3.87104e-08
-3.8045e-08
-3.71202e-08
-3.35357e-08
-2.84258e-08
-2.5463e-08
-2.30644e-08
-2.21149e-08
-2.30319e-08
-3.9503e-08
-3.78696e-08
-3.61733e-08
-2.86993e-08
-1.88953e-08
-8.85084e-09
3.09415e-09
1.21593e-08
1.94049e-08
2.44109e-08
2.54454e-08
2.643e-08
2.52812e-08
2.40926e-08
2.31663e-08
2.0945e-08
1.96017e-08
1.74144e-08
1.73507e-08
1.70945e-08
1.65207e-08
1.64698e-08
1.4974e-08
1.32209e-08
1.29448e-08
1.22414e-08
1.13789e-08
9.06181e-09
3.7556e-09
-6.31382e-09
-2.01391e-08
-3.21275e-08
-4.25188e-08
-4.93295e-08
-5.48834e-08
-5.75401e-08
-5.7739e-08
-5.77638e-08
-5.70783e-08
-5.91365e-08
-6.12971e-08
-6.5338e-08
-6.3666e-08
-6.21833e-08
-5.65744e-08
-4.93751e-08
-4.50728e-08
-4.16129e-08
-3.93169e-08
-3.92505e-08
-5.88381e-08
-5.58788e-08
-5.35246e-08
-4.36859e-08
-3.0813e-08
-1.7237e-08
-1.93888e-10
1.31827e-08
2.44272e-08
3.28118e-08
3.57233e-08
3.8535e-08
3.80077e-08
3.68045e-08
3.53876e-08
3.19203e-08
3.02533e-08
2.78244e-08
2.91481e-08
3.07453e-08
3.13321e-08
3.25806e-08
3.1873e-08
3.03296e-08
3.13678e-08
3.16061e-08
3.07863e-08
2.66107e-08
1.66056e-08
-7.08473e-10
-2.40915e-08
-4.70399e-08
-6.81965e-08
-8.63133e-08
-1.04783e-07
-1.16373e-07
-1.20177e-07
-1.19993e-07
-1.14065e-07
-1.07056e-07
-9.93743e-08
-9.74281e-08
-9.21292e-08
-9.17967e-08
-8.70909e-08
-8.05212e-08
-7.61852e-08
-7.07939e-08
-6.48004e-08
-6.13362e-08
-6.6979e-08
-6.16245e-08
-6.04638e-08
-5.21454e-08
-3.97075e-08
-2.53896e-08
-4.7428e-09
1.22812e-08
2.68651e-08
3.7986e-08
4.21095e-08
4.74149e-08
4.88178e-08
4.83929e-08
4.66548e-08
4.12514e-08
3.84479e-08
3.51561e-08
3.76018e-08
4.2425e-08
4.56077e-08
4.92582e-08
5.10102e-08
5.12141e-08
5.57997e-08
6.07858e-08
6.43356e-08
6.3227e-08
5.2441e-08
3.05363e-08
-6.41023e-10
-3.71577e-08
-7.39594e-08
-1.09732e-07
-1.52121e-07
-1.85552e-07
-2.03914e-07
-2.11109e-07
-2.00826e-07
-1.76467e-07
-1.45419e-07
-1.24314e-07
-1.07309e-07
-1.06642e-07
-1.05071e-07
-1.02098e-07
-1.00477e-07
-9.40965e-08
-8.40414e-08
-7.51332e-08
-5.95324e-08
-4.80395e-08
-4.62891e-08
-4.06556e-08
-3.13122e-08
-1.79633e-08
5.26731e-09
2.51722e-08
4.11695e-08
5.12783e-08
5.14006e-08
5.47459e-08
5.63519e-08
5.68946e-08
5.64699e-08
5.00493e-08
4.51039e-08
3.90196e-08
3.95548e-08
4.57897e-08
5.17302e-08
5.72715e-08
6.19436e-08
6.48076e-08
7.40288e-08
8.79924e-08
1.01755e-07
1.12055e-07
1.10728e-07
9.22794e-08
6.06898e-08
1.58261e-08
-3.55569e-08
-8.82879e-08
-1.6086e-07
-2.34061e-07
-2.87689e-07
-3.19667e-07
-3.16696e-07
-2.82695e-07
-2.27258e-07
-1.76035e-07
-1.32536e-07
-1.19011e-07
-1.10549e-07
-1.03124e-07
-9.96681e-08
-9.37058e-08
-8.4327e-08
-7.41439e-08
-3.63501e-08
-2.06368e-08
-1.53752e-08
-5.83101e-09
3.50216e-09
1.87981e-08
4.87937e-08
7.50994e-08
9.42529e-08
1.01686e-07
9.02796e-08
7.93215e-08
6.99374e-08
6.44994e-08
6.33036e-08
5.90627e-08
5.47663e-08
4.70324e-08
4.3298e-08
4.50433e-08
4.99853e-08
5.286e-08
5.61874e-08
5.95713e-08
7.07491e-08
9.39697e-08
1.21e-07
1.4874e-07
1.69493e-07
1.67707e-07
1.46576e-07
1.08016e-07
5.60053e-08
6.25745e-09
-7.17601e-08
-1.73692e-07
-2.86527e-07
-3.91688e-07
-4.37688e-07
-4.20716e-07
-3.56567e-07
-2.86504e-07
-2.15213e-07
-1.76156e-07
-1.39836e-07
-1.01165e-07
-7.10184e-08
-5.3927e-08
-4.81995e-08
-4.86312e-08
-4.48915e-09
-1.96547e-09
-1.886e-09
2.1148e-08
4.5105e-08
7.26385e-08
1.22841e-07
1.6906e-07
2.01898e-07
2.17107e-07
1.96877e-07
1.61102e-07
1.21741e-07
9.06367e-08
6.9461e-08
6.41214e-08
6.50213e-08
6.45253e-08
6.61857e-08
6.35252e-08
6.39186e-08
5.72537e-08
4.82447e-08
4.41881e-08
4.91039e-08
7.29751e-08
1.08588e-07
1.50281e-07
1.9666e-07
2.22189e-07
2.18689e-07
1.93856e-07
1.50889e-07
1.24997e-07
8.65708e-08
2.43143e-08
-8.62754e-08
-2.47884e-07
-4.10887e-07
-5.21691e-07
-4.99072e-07
-4.40168e-07
-3.65774e-07
-3.18482e-07
-2.56743e-07
-1.65217e-07
-6.70886e-08
3.93696e-09
2.85841e-08
1.02228e-08
5.9042e-08
-2.9194e-09
-5.87052e-08
-4.22728e-08
1.71951e-08
8.09138e-08
1.74419e-07
2.68899e-07
3.34937e-07
3.7632e-07
3.6923e-07
3.19035e-07
2.41893e-07
1.65861e-07
8.74926e-08
5.6644e-08
5.22233e-08
6.23014e-08
9.14557e-08
1.06675e-07
1.18409e-07
1.10848e-07
8.26883e-08
6.02635e-08
4.8309e-08
6.12963e-08
9.73052e-08
1.42352e-07
2.01132e-07
2.45004e-07
2.53078e-07
2.33344e-07
1.89478e-07
1.77433e-07
1.89249e-07
2.25473e-07
2.17624e-07
1.14911e-07
-7.38759e-08
-3.56754e-07
-5.00724e-07
-5.3198e-07
-4.81885e-07
-4.51817e-07
-4.11903e-07
-3.19772e-07
-1.72114e-07
-1.57123e-08
9.92852e-08
1.20849e-07
2.53007e-07
1.37402e-07
-6.67909e-08
-1.97114e-07
-1.72556e-07
-6.94134e-08
8.87262e-08
2.74339e-07
4.17257e-07
5.04434e-07
5.35148e-07
5.00948e-07
4.01646e-07
2.87381e-07
1.30361e-07
3.62104e-08
-8.21446e-09
-1.64085e-08
3.59909e-08
9.50004e-08
1.57771e-07
1.94488e-07
1.74652e-07
1.39233e-07
1.06945e-07
1.10309e-07
1.53745e-07
2.02377e-07
2.65741e-07
3.11555e-07
3.14443e-07
2.85401e-07
2.17414e-07
1.80502e-07
1.85119e-07
2.85897e-07
4.3418e-07
4.73866e-07
3.75641e-07
6.44535e-08
-2.36049e-07
-4.26688e-07
-4.22946e-07
-3.82126e-07
-3.6045e-07
-3.51295e-07
-2.839e-07
-1.40911e-07
6.13939e-08
2.30928e-07
4.7572e-07
5.07841e-07
2.97431e-07
-4.4165e-08
-2.95248e-07
-3.20171e-07
-1.73585e-07
9.43971e-08
3.70958e-07
5.4959e-07
6.33442e-07
6.38939e-07
5.32912e-07
4.02146e-07
1.85946e-07
1.11114e-08
-9.87309e-08
-1.61253e-07
-1.36209e-07
-6.1393e-08
5.68665e-08
1.70832e-07
2.15434e-07
2.05985e-07
1.73345e-07
1.87387e-07
2.72297e-07
3.55977e-07
4.45165e-07
5.11162e-07
5.11543e-07
4.88027e-07
4.07222e-07
3.48479e-07
2.92329e-07
3.22233e-07
4.89112e-07
6.37963e-07
6.7796e-07
4.59399e-07
1.25495e-07
-1.7666e-07
-2.16785e-07
-1.18626e-07
-2.62786e-08
-5.07162e-08
-1.09313e-07
-1.23541e-07
-2.78922e-08
2.23147e-07
5.09573e-07
7.9404e-07
8.59673e-07
6.17441e-07
1.42468e-07
-2.13535e-07
-2.83537e-07
-8.37868e-08
2.7222e-07
5.71206e-07
7.31103e-07
7.87802e-07
6.63326e-07
4.98273e-07
2.31797e-07
-1.87234e-08
-1.90368e-07
-2.94749e-07
-3.10151e-07
-2.67719e-07
-1.53331e-07
-1.88659e-08
8.65768e-08
1.2859e-07
1.22078e-07
1.42428e-07
2.8361e-07
4.59956e-07
6.27453e-07
7.57867e-07
7.6615e-07
7.79616e-07
7.55639e-07
7.94709e-07
8.02111e-07
7.55374e-07
7.69911e-07
7.7312e-07
7.69125e-07
6.28364e-07
3.62602e-07
4.85174e-08
-8.55849e-09
1.42521e-07
3.4081e-07
3.78098e-07
2.92629e-07
1.72092e-07
8.66709e-08
2.17889e-07
4.9915e-07
8.17981e-07
1.12634e-06
1.20252e-06
8.80758e-07
3.5102e-07
-1.8664e-08
-1.43609e-08
3.10731e-07
6.67714e-07
8.97634e-07
1.04045e-06
9.28298e-07
6.94943e-07
3.09107e-07
-3.49929e-08
-2.78983e-07
-3.95184e-07
-4.0167e-07
-3.72981e-07
-2.79753e-07
-1.81804e-07
-9.26057e-08
-3.40764e-08
-1.55971e-08
-1.7032e-08
1.08399e-07
3.35781e-07
5.98795e-07
8.42717e-07
8.71261e-07
8.72627e-07
8.90419e-07
1.05861e-06
1.3481e-06
1.58531e-06
1.64622e-06
1.43271e-06
1.08412e-06
7.00418e-07
4.26469e-07
1.23858e-07
5.97111e-08
2.28729e-07
4.96684e-07
6.25016e-07
5.8661e-07
4.62494e-07
2.99901e-07
3.28146e-07
5.05762e-07
7.50477e-07
1.0959e-06
1.34844e-06
1.29011e-06
8.56233e-07
3.25169e-07
1.0376e-07
3.30834e-07
6.86366e-07
9.2194e-07
1.15713e-06
1.18958e-06
1.01924e-06
5.48831e-07
1.01417e-07
-2.80679e-07
-4.51611e-07
-4.3345e-07
-3.69788e-07
-2.54092e-07
-1.45788e-07
-1.16603e-07
-1.2699e-07
-1.33368e-07
-1.1826e-07
-2.59736e-08
1.49877e-07
4.10884e-07
7.48204e-07
8.45885e-07
7.67154e-07
7.15943e-07
8.7834e-07
1.2829e-06
1.81596e-06
2.33518e-06
2.39787e-06
1.92496e-06
1.10542e-06
5.63032e-07
1.30491e-07
-8.76846e-09
1.45448e-07
4.42891e-07
6.16091e-07
6.10841e-07
5.6769e-07
3.99269e-07
3.77067e-07
4.07446e-07
6.51749e-07
9.66432e-07
1.26918e-06
1.42741e-06
1.20262e-06
6.60016e-07
2.5587e-07
3.03048e-07
5.46809e-07
6.40327e-07
8.77237e-07
1.11624e-06
1.19366e-06
8.9371e-07
4.74634e-07
-3.56213e-08
-3.75911e-07
-4.34378e-07
-3.44481e-07
-1.64314e-07
9.80386e-09
6.55341e-08
-2.4413e-08
-1.61196e-07
-1.29544e-07
4.4034e-08
9.17255e-08
2.84188e-07
6.25867e-07
8.76015e-07
8.09489e-07
5.9863e-07
5.36907e-07
8.43563e-07
1.33717e-06
1.96652e-06
2.44192e-06
2.36771e-06
1.72554e-06
1.09892e-06
4.73369e-07
7.6358e-08
1.29698e-07
5.29393e-07
7.68665e-07
6.37658e-07
4.89742e-07
3.78832e-07
3.20536e-07
1.86893e-07
2.98552e-08
2.97281e-07
5.27748e-07
9.79641e-07
1.41475e-06
1.35858e-06
1.15525e-06
1.09015e-06
1.3139e-06
8.96836e-07
2.32831e-07
2.05219e-07
6.98869e-07
1.01298e-06
8.45414e-07
4.13473e-07
-7.83153e-08
-3.18261e-07
-3.04582e-07
4.13451e-08
2.08935e-07
1.86266e-07
1.13827e-07
-4.7617e-08
-4.17293e-08
4.33207e-07
4.13744e-07
1.6835e-07
4.36055e-07
6.65276e-07
7.8606e-07
7.67083e-07
5.38749e-07
4.97148e-07
7.34104e-07
1.12713e-06
1.51409e-06
1.58317e-06
1.57235e-06
1.61484e-06
1.35132e-06
8.41663e-07
4.8631e-07
5.92413e-07
8.1618e-07
6.97408e-07
4.83577e-07
3.22755e-07
3.35687e-07
6.15585e-07
5.50428e-07
4.48499e-07
-1.10321e-08
-2.77535e-07
2.716e-07
9.92299e-07
1.3229e-06
1.42912e-06
1.65774e-06
1.50018e-06
6.29526e-07
-2.91351e-08
1.19134e-07
7.83755e-07
9.90796e-07
8.84377e-07
3.93528e-07
-4.91141e-08
-1.76532e-07
3.72697e-07
7.69153e-07
5.17464e-07
1.56864e-07
1.20076e-08
-6.96481e-08
1.80693e-07
6.27969e-07
4.91263e-07
-7.87961e-08
-2.91188e-07
-2.43466e-07
1.35407e-07
7.31482e-07
4.50868e-07
1.64276e-07
-6.49428e-08
4.59519e-07
7.75464e-07
5.5978e-07
1.29276e-06
1.92015e-06
1.75771e-06
1.15773e-06
6.03304e-07
4.28947e-07
2.8955e-07
3.95118e-07
5.02169e-07
5.52779e-07
1.05074e-06
8.17612e-07
7.07563e-07
4.88386e-07
-1.50275e-06
-1.97283e-06
-6.86823e-07
7.11735e-07
1.76678e-06
1.87872e-06
1.60639e-06
1.17336e-06
2.88874e-07
-4.52605e-07
2.98261e-08
8.84279e-07
1.39054e-06
1.30937e-06
7.93093e-07
2.03848e-07
5.22321e-07
1.41018e-06
1.73957e-06
1.04503e-06
7.66018e-08
-9.84795e-08
-7.19249e-08
-6.55823e-09
1.05518e-07
1.61745e-07
-4.8348e-07
-1.41669e-06
-2.01119e-06
-1.57699e-06
2.45459e-07
1.32847e-07
-5.0188e-07
-1.10443e-06
-1.47575e-06
-5.08037e-07
2.93773e-07
1.70769e-06
2.46106e-06
2.2216e-06
1.39453e-06
7.05547e-07
3.19501e-07
4.00833e-07
8.69851e-07
1.02809e-06
1.36214e-06
1.07592e-06
6.12727e-07
7.52655e-07
2.79763e-08
-1.39633e-06
-9.24144e-07
7.81463e-08
1.46458e-06
2.22788e-06
1.37616e-06
7.20535e-07
2.64709e-07
-5.73748e-07
-6.58116e-07
5.40325e-07
1.31393e-06
1.32811e-06
9.78097e-07
4.00118e-07
4.86409e-07
1.46039e-06
2.08467e-06
1.61673e-06
4.05559e-07
-1.46423e-07
-3.14788e-07
-6.22889e-07
-5.97936e-07
-7.85773e-09
-1.95188e-07
-1.04277e-06
-2.16331e-06
-2.30669e-06
9.99952e-08
6.81339e-08
-1.49997e-07
-4.74966e-07
-9.872e-07
-1.27622e-07
4.37102e-07
1.07484e-06
2.19596e-06
2.64855e-06
2.20956e-06
1.66799e-06
1.47222e-06
1.13219e-06
8.26582e-07
1.12937e-06
1.09334e-06
1.08594e-06
5.91331e-07
5.09843e-07
5.09707e-07
-3.32041e-07
-3.62821e-07
-4.79006e-08
9.00812e-07
1.87892e-06
1.73356e-06
6.15114e-07
-7.37032e-07
-1.06805e-06
-1.01131e-06
-2.77053e-07
9.38134e-07
1.12513e-06
7.99695e-07
2.96514e-07
2.39852e-07
1.3748e-06
2.37837e-06
2.15408e-06
1.12118e-06
2.06381e-07
-2.98837e-07
-8.24892e-07
-1.0584e-06
-7.93451e-07
-2.81485e-07
-3.68472e-07
-1.23568e-06
-2.10794e-06
4.47517e-07
-3.56239e-08
-7.75851e-08
-2.32925e-08
-2.52634e-07
3.07773e-07
4.11975e-07
9.11929e-07
1.50219e-06
2.49416e-06
2.70487e-06
2.37528e-06
2.30624e-06
2.32289e-06
8.36441e-07
4.20539e-07
9.78865e-07
1.14091e-06
6.05484e-07
2.55819e-07
4.93993e-07
7.82969e-07
6.19852e-07
4.60585e-07
4.69919e-07
8.22706e-07
1.15833e-06
5.35371e-07
-1.69465e-06
-2.47515e-06
-1.98827e-06
-8.68004e-07
2.09323e-07
1.01637e-06
1.04317e-06
3.86376e-07
-1.80407e-07
1.07987e-06
2.71256e-06
2.73328e-06
1.98899e-06
1.01786e-06
-1.03467e-07
-6.98843e-07
-9.82713e-07
-1.49202e-06
-1.4048e-06
-5.29373e-07
-4.69758e-07
-1.03185e-06
1.04563e-06
1.04373e-07
-5.50786e-08
3.37257e-07
4.36872e-07
7.9041e-07
8.26149e-07
6.64382e-07
1.05833e-06
1.62585e-06
1.73701e-06
1.37974e-06
1.66879e-06
1.97853e-06
1.00708e-06
1.39556e-07
1.65598e-06
1.44713e-06
4.041e-07
1.06285e-06
2.27774e-06
2.68965e-06
2.27294e-06
2.27927e-06
2.31366e-06
1.65459e-06
8.22411e-07
-4.30127e-08
-2.07679e-06
-3.35135e-06
-3.30057e-06
-1.92072e-06
3.83114e-07
1.89845e-06
2.1918e-06
3.6612e-07
-1.13316e-06
1.657e-07
2.29986e-06
2.67334e-06
2.24912e-06
1.3659e-06
-6.01178e-08
-5.83905e-07
-2.4846e-07
-1.1817e-06
-1.69048e-06
-8.58598e-07
8.90191e-08
-1.05953e-07
9.95835e-07
6.6539e-07
3.53401e-07
7.88085e-07
9.01642e-07
8.77171e-07
1.00251e-06
1.21094e-06
2.14033e-06
2.84152e-06
7.39551e-07
-1.22176e-07
9.21823e-07
1.68935e-06
1.86223e-06
1.58005e-06
7.94189e-07
-3.58939e-07
-1.23908e-06
6.72078e-08
3.28716e-06
3.50361e-06
2.51267e-06
2.43014e-06
3.10465e-06
3.57763e-06
3.53587e-06
2.36098e-06
1.19743e-06
3.41384e-08
-1.32079e-06
-1.83285e-06
-3.39218e-07
1.41821e-06
8.03578e-07
-1.32567e-06
-2.86226e-06
-2.4892e-06
3.58004e-07
1.56985e-06
1.58334e-06
1.0664e-06
-3.38576e-08
-4.72952e-07
1.5841e-07
-3.10237e-07
-9.68208e-07
-2.52605e-07
3.26073e-07
4.56748e-07
9.47761e-07
1.05137e-06
3.97747e-07
3.88206e-07
9.80245e-07
9.54993e-07
5.7342e-07
9.00226e-07
2.28269e-06
1.61598e-06
7.67237e-07
1.56556e-06
1.77807e-06
1.6801e-06
2.01454e-06
1.94574e-06
-4.26355e-07
-7.6321e-07
-1.46461e-06
-1.42265e-06
4.57357e-07
1.84445e-06
1.4444e-06
1.38428e-06
2.27101e-06
3.63345e-06
4.31035e-06
3.25297e-06
3.56481e-06
3.27616e-06
1.78785e-06
3.73447e-07
2.4725e-07
1.4862e-06
4.48008e-07
-1.73835e-06
-3.20426e-06
-2.98568e-06
-1.19605e-06
-1.0462e-06
-1.10958e-06
-1.0875e-06
-1.27276e-06
-9.22768e-07
-2.04102e-07
2.65876e-07
3.00953e-07
7.10767e-07
7.79895e-07
9.28751e-07
2.09618e-07
-1.54678e-07
-8.31383e-08
-8.75137e-07
1.81471e-07
2.02097e-06
1.75317e-06
1.5098e-06
1.64763e-06
1.9047e-06
2.39906e-06
2.83714e-06
1.62532e-06
-2.38761e-07
-5.94695e-07
1.59131e-07
2.22388e-06
1.10216e-06
-4.28808e-07
-8.0839e-07
-3.77768e-07
3.49209e-07
-1.42321e-07
-3.33915e-07
1.54123e-06
4.31931e-06
5.10056e-06
2.96791e-06
2.95588e-06
3.58696e-06
3.16712e-06
2.34732e-06
2.87399e-06
3.22522e-06
6.927e-07
-2.06596e-06
-3.75068e-06
-2.94924e-06
-1.27249e-06
-2.33719e-07
-3.48673e-07
-5.61395e-07
-1.08648e-06
-8.30824e-07
-2.99636e-08
5.97151e-07
1.0615e-06
1.12399e-06
1.28689e-06
2.00399e-06
1.56754e-06
-3.62409e-09
-1.33883e-06
-2.39476e-06
-2.64228e-06
-8.795e-08
1.93641e-06
7.42076e-07
4.79048e-07
2.75952e-06
5.17723e-06
5.06616e-06
2.18415e-06
-6.64675e-07
-6.63181e-07
1.28893e-06
9.00263e-06
6.05754e-06
7.20606e-07
-4.27536e-08
3.24253e-07
-4.54946e-07
-7.29428e-07
-8.00213e-07
1.44923e-07
3.04964e-06
4.47555e-06
3.24241e-06
2.0889e-06
1.85998e-06
2.07411e-06
1.85622e-06
2.66941e-06
3.18551e-06
1.18542e-06
-2.98169e-06
-3.73078e-06
-2.07824e-06
-1.4786e-06
-6.31164e-07
1.23777e-07
6.38071e-07
-2.39555e-07
-1.53327e-06
-7.4404e-07
1.57064e-06
1.57266e-06
1.00325e-06
-9.92398e-07
-8.01037e-07
2.07154e-06
4.40035e-06
4.02094e-06
1.70175e-06
-1.56738e-06
-2.59401e-06
-5.56341e-07
-5.95057e-08
5.65945e-07
4.08316e-06
8.01035e-06
8.78995e-06
5.37321e-06
3.08751e-06
3.67626e-06
6.54806e-06
1.10682e-05
5.49028e-06
-2.35473e-07
8.8811e-07
2.06191e-06
1.43288e-06
-7.55874e-08
-2.38166e-06
-2.19783e-06
1.07315e-07
2.03929e-06
2.44515e-06
1.89595e-06
1.86619e-06
2.57453e-06
2.47572e-06
2.02624e-06
2.59106e-06
1.19106e-06
-2.95135e-06
-2.87302e-06
-7.89134e-07
-7.83076e-07
-8.43906e-07
-9.92508e-07
-1.31972e-06
-1.90003e-06
-1.80937e-06
1.45833e-06
2.43684e-06
4.02224e-06
2.75419e-06
-9.3897e-07
-1.70578e-06
1.16932e-06
4.35786e-06
4.61523e-06
1.98833e-06
-1.00785e-07
-1.73038e-07
7.64692e-07
1.369e-06
1.05893e-06
8.91055e-07
1.14505e-06
1.273e-06
1.43409e-06
1.22131e-06
3.05116e-06
8.01531e-06
6.87723e-06
6.42313e-06
4.95362e-06
4.8e-06
4.33654e-06
3.56246e-06
3.53341e-06
1.7328e-06
5.0254e-07
2.98827e-06
4.53407e-06
3.30012e-06
2.10737e-06
3.992e-06
6.38199e-06
7.4019e-06
6.43998e-06
4.47563e-06
1.12462e-06
-3.29171e-06
-3.11867e-06
-1.05761e-06
1.58047e-07
4.93022e-07
3.20077e-07
-7.28946e-07
-2.36862e-06
1.07708e-07
4.46497e-06
6.52572e-06
6.41576e-06
3.91951e-06
7.78522e-07
1.9297e-06
4.06508e-06
5.35175e-06
4.29366e-06
1.70123e-06
1.53736e-06
4.14239e-06
3.30346e-06
3.53485e-06
2.57984e-06
-3.58356e-06
-3.51557e-06
-9.10926e-07
-9.27703e-07
-9.74659e-07
-1.9166e-07
3.53372e-06
4.79611e-06
4.40386e-06
3.92974e-06
3.97922e-06
3.55694e-06
2.73584e-06
5.47363e-06
7.28439e-06
4.82487e-06
5.03892e-06
6.79721e-06
4.79476e-06
9.70584e-07
1.4784e-06
3.69382e-06
5.85348e-06
6.4935e-06
5.40479e-06
3.79859e-06
2.55214e-06
1.1941e-06
2.60862e-06
4.41332e-06
3.17245e-06
1.33104e-09
1.75659e-08
4.79454e-07
1.27535e-06
3.17392e-06
4.50797e-06
4.88677e-06
2.12706e-06
5.22786e-07
2.64325e-06
4.21067e-06
4.92372e-06
5.01421e-06
4.38156e-06
3.43763e-06
4.77331e-06
4.95678e-06
4.18998e-06
4.02803e-06
1.9336e-06
5.40078e-07
8.98375e-07
3.78889e-07
4.93476e-07
1.50345e-06
3.08073e-06
6.71356e-07
2.57023e-06
3.28667e-06
1.8416e-06
1.88428e-06
4.24413e-06
6.6765e-06
6.139e-06
4.57006e-06
4.84219e-06
3.60728e-06
-1.95668e-06
-6.98525e-06
-4.19531e-06
3.95687e-07
1.65369e-06
2.27942e-06
2.96568e-06
4.92133e-06
2.99226e-06
-1.19589e-06
-1.78473e-06
-7.5699e-07
-8.59521e-07
-4.90948e-07
1.56561e-06
2.89212e-06
2.71098e-06
8.14408e-07
-1.71935e-06
-1.6322e-06
2.12186e-07
-4.77756e-07
-1.29898e-06
-5.52625e-08
1.01057e-06
1.04287e-06
1.15798e-06
3.26765e-06
5.03756e-06
5.10862e-06
3.8095e-06
1.05113e-06
1.06036e-06
1.26667e-06
1.40443e-06
3.67849e-06
3.86222e-06
2.92711e-06
8.56737e-07
1.35855e-06
3.11499e-06
2.93929e-06
-8.69487e-07
-1.4693e-06
-3.44498e-07
-1.22261e-06
1.12793e-06
4.14363e-07
-9.07121e-07
-2.56519e-06
-4.55128e-06
-3.98954e-06
2.62105e-07
1.14364e-06
4.66809e-06
6.05235e-06
7.55713e-06
6.14264e-06
4.5405e-07
1.02801e-06
3.13456e-06
1.24885e-06
2.25307e-06
4.7193e-06
4.66275e-06
4.18779e-06
2.92217e-06
-7.44148e-08
-5.89614e-06
-8.37651e-06
-2.75033e-06
3.45969e-06
1.20856e-06
8.93496e-07
1.48596e-06
-7.1703e-07
-1.04669e-06
1.48556e-06
5.34566e-06
6.7142e-06
3.27979e-06
1.18231e-06
4.50616e-07
3.3111e-07
-9.48592e-07
-3.23963e-07
1.33415e-06
1.88516e-06
7.33752e-07
3.34366e-08
3.88811e-08
4.01768e-08
3.77413e-08
3.33432e-08
3.09611e-08
3.25464e-08
3.41783e-08
3.84852e-08
4.04871e-08
4.06978e-08
4.20696e-08
3.98209e-08
4.28867e-08
3.59039e-08
3.04082e-08
2.99217e-08
2.79698e-08
2.90252e-08
2.96927e-08
2.75409e-08
2.65537e-08
2.27271e-08
1.83489e-08
1.6699e-08
1.25263e-08
7.65178e-09
1.92365e-09
-5.89156e-09
-1.32805e-08
-2.15703e-08
-3.44714e-08
-5.20402e-08
-6.89964e-08
-9.00608e-08
-1.05029e-07
-1.08742e-07
-1.02969e-07
-8.5252e-08
-5.96619e-08
-3.17254e-08
-1.19774e-08
-2.47927e-09
-8.71637e-09
-1.97312e-08
-2.6054e-08
-2.29217e-08
-8.71161e-09
6.49706e-09
2.13289e-08
6.22074e-08
7.33951e-08
7.66107e-08
7.23856e-08
6.48769e-08
6.03373e-08
6.10759e-08
6.20324e-08
6.77129e-08
7.00705e-08
7.02788e-08
7.30976e-08
6.99017e-08
7.09043e-08
6.40474e-08
5.62864e-08
5.54769e-08
5.28684e-08
5.46098e-08
5.59878e-08
5.29496e-08
5.10589e-08
4.50678e-08
3.82687e-08
3.56488e-08
2.99022e-08
2.24851e-08
1.30571e-08
4.49896e-10
-1.16759e-08
-2.44552e-08
-4.36302e-08
-6.96253e-08
-9.44857e-08
-1.25874e-07
-1.49982e-07
-1.60107e-07
-1.55362e-07
-1.2887e-07
-8.9259e-08
-4.5274e-08
-1.25291e-08
3.74358e-09
-6.09663e-09
-2.29906e-08
-3.55746e-08
-3.28442e-08
-1.04392e-08
1.45714e-08
4.0099e-08
1.04077e-07
1.29695e-07
1.40697e-07
1.36946e-07
1.25452e-07
1.16725e-07
1.1378e-07
1.10195e-07
1.14831e-07
1.15494e-07
1.13474e-07
1.19095e-07
1.1635e-07
1.17308e-07
1.09886e-07
9.91105e-08
9.70257e-08
9.39877e-08
9.70562e-08
1.00265e-07
9.70541e-08
9.36818e-08
8.52375e-08
7.61413e-08
7.43118e-08
7.05946e-08
6.27761e-08
4.98735e-08
3.05831e-08
1.0898e-08
-4.78759e-09
-2.59575e-08
-5.74816e-08
-9.06089e-08
-1.34312e-07
-1.67057e-07
-1.84611e-07
-1.88713e-07
-1.65686e-07
-1.20981e-07
-6.17439e-08
-7.2e-09
2.61929e-08
1.60584e-08
-8.2232e-09
-3.48993e-08
-4.28859e-08
-1.72876e-08
1.77623e-08
6.02123e-08
1.21601e-07
1.75754e-07
2.08326e-07
2.1823e-07
2.10195e-07
2.00007e-07
1.93586e-07
1.81252e-07
1.78418e-07
1.7179e-07
1.60583e-07
1.6522e-07
1.63917e-07
1.64596e-07
1.58265e-07
1.45989e-07
1.40715e-07
1.35792e-07
1.40922e-07
1.49144e-07
1.51157e-07
1.49775e-07
1.39918e-07
1.28098e-07
1.27193e-07
1.30841e-07
1.3099e-07
1.21645e-07
9.79231e-08
6.76079e-08
4.66137e-08
2.59592e-08
-4.23369e-09
-4.76518e-08
-1.16379e-07
-1.69653e-07
-1.84972e-07
-1.72074e-07
-1.37545e-07
-1.07666e-07
-6.45563e-08
-1.79699e-09
5.39352e-08
5.59494e-08
3.09775e-08
-1.19968e-08
-4.64775e-08
-3.73053e-08
-6.2916e-09
4.76227e-08
7.57118e-08
1.68971e-07
2.41808e-07
2.89216e-07
3.05685e-07
3.08969e-07
3.1047e-07
2.94047e-07
2.80003e-07
2.59648e-07
2.29048e-07
2.19958e-07
2.13615e-07
2.14254e-07
2.0762e-07
1.95038e-07
1.84486e-07
1.70732e-07
1.7341e-07
1.87068e-07
2.02167e-07
2.14195e-07
2.09163e-07
1.93873e-07
1.88186e-07
1.95603e-07
2.10165e-07
2.18885e-07
2.05028e-07
1.69863e-07
1.36172e-07
1.07082e-07
8.21201e-08
3.46091e-08
-7.22061e-08
-1.77367e-07
-2.22553e-07
-1.91404e-07
-7.9895e-08
8.23305e-09
2.93485e-08
4.22278e-08
7.88958e-08
8.81536e-08
7.08544e-08
2.26796e-08
-4.35893e-08
-7.05483e-08
-6.64985e-08
-2.17137e-08
-5.81945e-08
6.00777e-08
1.77218e-07
2.82174e-07
3.52488e-07
3.99204e-07
4.38548e-07
4.42981e-07
4.30581e-07
4.00055e-07
3.43747e-07
3.05511e-07
2.77331e-07
2.73248e-07
2.63108e-07
2.5181e-07
2.37409e-07
2.06479e-07
1.92137e-07
1.97666e-07
2.21864e-07
2.59484e-07
2.75689e-07
2.66297e-07
2.53159e-07
2.50821e-07
2.70924e-07
3.07622e-07
3.29036e-07
3.10736e-07
2.65591e-07
2.10454e-07
1.84496e-07
1.68516e-07
6.16762e-08
-1.25007e-07
-2.97078e-07
-3.20016e-07
-1.32613e-07
1.59539e-07
3.10051e-07
2.78756e-07
1.95889e-07
1.35638e-07
1.04592e-07
7.01849e-08
-2.12394e-08
-1.06813e-07
-1.56709e-07
-1.49041e-07
-2.60287e-07
-1.51412e-07
-1.8893e-08
1.29e-07
2.63471e-07
3.78165e-07
4.93139e-07
5.65053e-07
5.94323e-07
5.83237e-07
5.12175e-07
4.38238e-07
3.67464e-07
3.42917e-07
3.25962e-07
3.22656e-07
3.15709e-07
2.71358e-07
2.26337e-07
1.96215e-07
2.00839e-07
2.55683e-07
3.07613e-07
3.26638e-07
3.20391e-07
3.05671e-07
3.0765e-07
3.50923e-07
4.14657e-07
4.43519e-07
4.12263e-07
3.148e-07
2.43738e-07
2.83366e-07
3.24563e-07
2.56714e-07
-5.95829e-08
-4.75672e-07
-4.68837e-07
9.18633e-08
6.27729e-07
7.91231e-07
5.86099e-07
3.20449e-07
1.82251e-07
1.81524e-07
1.3293e-07
-1.15101e-08
-1.87033e-07
-2.95423e-07
-4.42901e-07
-4.31388e-07
-3.09829e-07
-1.57691e-07
9.37862e-09
1.77612e-07
3.75055e-07
5.51296e-07
6.75379e-07
7.42521e-07
7.04769e-07
6.15692e-07
4.87626e-07
4.12536e-07
3.72848e-07
3.79427e-07
4.00647e-07
3.70293e-07
3.07914e-07
2.27426e-07
1.7419e-07
2.0738e-07
2.83721e-07
3.49532e-07
3.79628e-07
3.86101e-07
3.73261e-07
3.87318e-07
4.521e-07
5.14625e-07
5.15796e-07
3.86543e-07
2.01287e-07
1.77646e-07
3.71148e-07
7.25137e-07
8.50816e-07
2.52384e-07
-6.37322e-07
-5.57174e-07
4.74449e-07
1.2394e-06
1.19276e-06
7.05817e-07
3.18979e-07
3.03223e-07
4.40046e-07
4.60911e-07
2.41078e-07
-1.58472e-07
1.74738e-07
-4.00819e-07
-6.49691e-07
-5.86897e-07
-4.05959e-07
-2.10806e-07
5.04794e-08
3.39206e-07
5.93258e-07
7.89998e-07
8.55642e-07
8.19736e-07
6.58074e-07
5.0219e-07
3.94613e-07
3.77141e-07
4.17955e-07
4.24364e-07
3.87515e-07
2.94825e-07
1.80214e-07
1.51497e-07
2.10151e-07
3.06337e-07
3.85093e-07
4.5825e-07
4.90165e-07
5.03017e-07
5.6361e-07
6.38952e-07
6.57938e-07
5.0258e-07
1.79556e-07
-5.91416e-08
-1.06188e-08
5.70015e-07
1.42184e-06
1.5522e-06
6.07317e-07
-7.46737e-07
-2.90957e-07
9.5967e-07
1.49433e-06
1.07665e-06
4.3281e-07
2.5035e-07
4.90199e-07
8.80208e-07
1.10109e-06
8.74932e-07
1.5216e-06
8.56937e-07
7.72125e-09
-5.60252e-07
-8.20512e-07
-8.42693e-07
-6.12717e-07
-1.73084e-07
3.22802e-07
7.30399e-07
9.46494e-07
1.02813e-06
9.11617e-07
6.92513e-07
4.67815e-07
3.5977e-07
3.63803e-07
3.74339e-07
3.6379e-07
3.18785e-07
1.96706e-07
1.08243e-07
1.1653e-07
1.99936e-07
2.90634e-07
4.07748e-07
5.16077e-07
5.88277e-07
7.16605e-07
8.94872e-07
1.02714e-06
9.36243e-07
4.88803e-07
-4.89817e-09
-2.74451e-07
3.66654e-09
9.51927e-07
1.89785e-06
1.90201e-06
6.30841e-07
-1.37806e-07
2.63898e-07
1.01764e-06
1.01124e-06
4.318e-07
8.86383e-08
2.08072e-07
6.27715e-07
1.19199e-06
1.64537e-06
1.82765e-06
1.90245e-06
1.28218e-06
4.07811e-07
-1.70978e-07
-5.17731e-07
-8.10284e-07
-8.07986e-07
-2.50642e-07
5.38214e-07
1.05586e-06
1.28903e-06
1.26168e-06
1.04322e-06
7.03848e-07
4.40406e-07
3.44058e-07
3.25084e-07
3.09218e-07
3.12994e-07
2.40863e-07
1.09978e-07
5.02487e-08
8.81149e-08
1.47489e-07
2.25525e-07
3.4725e-07
4.42972e-07
5.91716e-07
8.58737e-07
1.20391e-06
1.47825e-06
1.26354e-06
7.20908e-07
2.00726e-08
-2.20372e-07
3.09222e-07
1.26285e-06
1.98283e-06
1.85249e-06
1.23679e-06
6.8219e-07
7.05518e-07
6.671e-07
2.59998e-07
-8.38783e-08
-4.97749e-08
2.52381e-07
6.22933e-07
1.24635e-06
1.14832e-06
1.81887e-06
2.00853e-06
1.49947e-06
6.72781e-07
8.76954e-08
-2.20605e-07
-4.60296e-07
-3.1607e-07
3.42459e-07
1.06766e-06
1.514e-06
1.5924e-06
1.40054e-06
9.82437e-07
5.60154e-07
2.84303e-07
2.48731e-07
3.41273e-07
4.70606e-07
5.74013e-07
4.75688e-07
2.41439e-07
9.48673e-08
5.58537e-08
6.82693e-08
1.47798e-07
2.26434e-07
3.1916e-07
5.03925e-07
7.55197e-07
1.20921e-06
1.48481e-06
1.38888e-06
8.55014e-07
3.03234e-07
3.14629e-07
8.79681e-07
1.494e-06
1.90172e-06
2.13409e-06
1.91096e-06
1.46487e-06
8.95478e-07
2.45656e-07
-2.56915e-07
-3.19114e-07
1.96134e-08
3.89041e-07
5.77865e-07
4.69333e-07
9.38364e-07
1.78582e-06
2.18167e-06
1.81116e-06
9.88735e-07
3.13235e-07
4.86777e-08
1.26836e-07
5.59476e-07
1.09078e-06
1.52725e-06
1.62389e-06
1.41058e-06
9.71774e-07
5.16319e-07
8.03485e-08
-5.42765e-08
1.47364e-07
5.04823e-07
8.93747e-07
1.16415e-06
9.9631e-07
6.32444e-07
1.71209e-07
1.16458e-07
1.30958e-07
1.54298e-07
2.45069e-07
4.09112e-07
5.42743e-07
6.38433e-07
9.36787e-07
1.22696e-06
1.09473e-06
5.68045e-07
5.83473e-07
1.11011e-06
1.43793e-06
1.51395e-06
1.95326e-06
2.22451e-06
2.03899e-06
1.37192e-06
5.65255e-07
-3.71758e-08
-2.94081e-07
-1.23182e-07
4.41435e-07
4.70512e-07
-2.61578e-06
2.3927e-07
6.78458e-07
1.86928e-06
2.52986e-06
2.169e-06
1.33097e-06
6.21143e-07
5.25701e-07
9.83106e-07
1.29399e-06
1.62643e-06
1.71273e-06
1.37453e-06
9.59937e-07
5.53915e-07
1.40336e-07
-1.89114e-07
-1.60169e-07
1.96704e-07
6.13355e-07
1.07977e-06
1.11177e-06
8.47956e-07
3.07805e-07
3.21419e-07
7.25245e-07
4.37557e-07
3.50854e-07
6.10781e-07
8.6721e-07
7.19116e-07
5.47148e-07
7.73168e-07
9.30633e-07
4.81699e-07
3.32509e-07
9.13862e-07
1.38386e-06
1.3157e-06
1.49992e-06
1.75776e-06
1.66263e-06
1.09561e-06
4.01156e-07
1.84144e-07
3.14053e-07
4.69199e-07
4.70417e-07
4.43462e-07
-1.58153e-06
-5.07031e-06
-6.81084e-06
-7.55571e-07
2.1923e-06
3.00381e-06
2.44202e-06
1.95104e-06
1.63281e-06
1.30721e-06
1.71059e-06
2.054e-06
2.12906e-06
1.81031e-06
1.59142e-06
1.17638e-06
8.52289e-07
3.30663e-07
-4.80146e-08
-9.19718e-08
1.27289e-07
5.44861e-07
7.84717e-07
7.06829e-07
2.08945e-07
1.24934e-07
7.20929e-07
8.8255e-07
4.26244e-07
3.67803e-07
3.9762e-07
2.0069e-07
1.8049e-07
3.08996e-07
5.34043e-07
2.49659e-07
8.32964e-09
5.11107e-07
9.5745e-07
9.63166e-07
1.18427e-06
1.39874e-06
1.19688e-06
6.4636e-07
4.28706e-08
3.78819e-08
6.38646e-07
1.13808e-06
8.73767e-07
4.23022e-07
4.11448e-07
-1.28598e-06
-5.54177e-06
-7.21019e-06
-6.34287e-07
7.03615e-07
1.47499e-06
1.96448e-06
2.64164e-06
2.60589e-06
1.71286e-06
1.98966e-06
2.35354e-06
2.77399e-06
2.81429e-06
2.33663e-06
1.91428e-06
1.25622e-06
4.42616e-07
-9.08328e-08
-2.92357e-08
1.98719e-07
3.77358e-07
4.66878e-07
7.56664e-08
-4.14392e-07
-1.42814e-07
3.00484e-07
6.16457e-07
5.02321e-07
6.89641e-08
-9.28399e-07
-1.05864e-06
-4.31749e-08
9.26755e-08
-4.46842e-07
-1.62445e-07
4.82917e-07
1.37259e-06
6.97198e-07
8.17265e-07
1.31973e-06
1.29301e-06
7.65731e-07
3.26382e-07
2.95624e-07
6.13706e-07
1.24085e-06
1.15519e-06
6.92251e-07
1.18884e-06
5.07601e-07
-9.32492e-07
-3.10672e-06
-4.07978e-06
-3.71474e-06
8.02469e-08
8.21521e-07
2.21629e-06
4.27249e-06
3.90078e-06
1.7424e-06
1.44619e-06
2.31343e-06
3.53734e-06
3.73568e-06
3.29272e-06
2.33155e-06
1.31124e-06
4.17708e-07
-1.69354e-08
8.49736e-08
1.59248e-07
-2.10091e-09
-4.61491e-07
-7.65649e-07
-6.44565e-07
-2.8436e-07
3.79889e-07
8.4547e-07
7.11395e-07
-5.03654e-07
-1.72212e-06
-1.25399e-06
3.58434e-07
2.81444e-07
-1.88151e-07
8.84732e-07
1.04457e-06
1.65795e-06
9.30415e-07
1.54501e-06
2.08366e-06
2.12498e-06
1.6976e-06
1.00545e-06
5.26163e-07
1.81152e-06
2.23348e-06
1.8278e-06
1.3202e-06
6.46865e-07
5.06479e-08
1.73113e-07
-2.67903e-07
-1.43975e-06
-7.51508e-07
4.48995e-07
1.65218e-06
3.63601e-06
5.90412e-06
4.07957e-06
2.64161e-07
6.94752e-07
2.17538e-06
3.62294e-06
3.9897e-06
3.26518e-06
2.0948e-06
1.03566e-06
2.82169e-07
2.38812e-07
4.01716e-07
2.09726e-07
-5.34267e-07
-1.20028e-06
-1.06663e-06
-7.67328e-07
-6.00926e-08
7.501e-07
1.18842e-06
4.40676e-07
-9.42385e-07
-7.11785e-07
2.66882e-08
5.11974e-07
-1.16875e-06
-9.83808e-07
2.71929e-07
1.02932e-08
9.08998e-07
1.31081e-06
1.92022e-06
2.57955e-06
2.5663e-06