/*--------------------------------*- C++ -*----------------------------------*\
| =========                 |                                                 |
| \\      /  F ield         | OpenFOAM: The Open Source CFD Toolbox           |
|  \\    /   O peration     | Version:  2.3.0                                 |
|   \\  /    A nd           | Web:      www.OpenFOAM.org                      |
|    \\/     M anipulation  |                                                 |
\*---------------------------------------------------------------------------*/
FoamFile
{
    version     2.0;
    format      ascii;
    class       volScalarField;
    location    "200";
    object      p;
}
// * * * * * * * * * * * * * * * * * * * * * * * * * * * * * * * * * * * * * //

dimensions      [0 2 -2 0 0 0 0];

internalField   nonuniform List<scalar> 
90000
(
-8.79196e-06
-1.10931e-05
-1.36942e-05
-1.46389e-05
-1.24088e-05
-7.46226e-06
6.5791e-07
1.04691e-05
1.97041e-05
2.70141e-05
3.13367e-05
3.41677e-05
3.5522e-05
3.51503e-05
3.27244e-05
2.70836e-05
2.04265e-05
1.41221e-05
9.47083e-06
6.77429e-06
5.19883e-06
5.54682e-06
7.03655e-06
8.60356e-06
1.0781e-05
1.29088e-05
1.47203e-05
1.61193e-05
1.64831e-05
1.59072e-05
1.58402e-05
1.66154e-05
1.62067e-05
1.57876e-05
1.42405e-05
1.13327e-05
1.09986e-05
1.12116e-05
9.38034e-06
5.87135e-06
5.55351e-06
8.76192e-06
1.28328e-05
1.15387e-05
4.38199e-06
-2.206e-06
-6.97625e-06
-9.08777e-06
-7.8565e-06
-7.21269e-06
-8.67946e-06
-1.10063e-05
-1.36467e-05
-1.46527e-05
-1.24713e-05
-7.54237e-06
5.66324e-07
1.0409e-05
1.96678e-05
2.70037e-05
3.13358e-05
3.41743e-05
3.55414e-05
3.51754e-05
3.27689e-05
2.7126e-05
2.04753e-05
1.41647e-05
9.49312e-06
6.79763e-06
5.21282e-06
5.55548e-06
7.05061e-06
8.61181e-06
1.07827e-05
1.29011e-05
1.47058e-05
1.61133e-05
1.65035e-05
1.59543e-05
1.59213e-05
1.66891e-05
1.62695e-05
1.58384e-05
1.4298e-05
1.14078e-05
1.10825e-05
1.13008e-05
9.45063e-06
6.03894e-06
5.7133e-06
8.89789e-06
1.29392e-05
1.16707e-05
4.39268e-06
-2.19313e-06
-7.00161e-06
-9.03694e-06
-7.75394e-06
-7.08437e-06
-8.56452e-06
-1.09553e-05
-1.36831e-05
-1.47941e-05
-1.26648e-05
-7.73445e-06
4.05999e-07
1.0315e-05
1.96306e-05
2.70183e-05
3.13667e-05
3.42197e-05
3.5604e-05
3.52471e-05
3.28772e-05
2.72443e-05
2.05669e-05
1.42324e-05
9.51856e-06
6.81803e-06
5.20814e-06
5.54182e-06
7.05253e-06
8.61282e-06
1.07765e-05
1.28784e-05
1.46768e-05
1.61127e-05
1.65726e-05
1.60693e-05
1.60522e-05
1.67884e-05
1.63328e-05
1.58679e-05
1.43699e-05
1.14883e-05
1.11375e-05
1.14554e-05
9.64037e-06
6.28911e-06
5.92319e-06
9.02728e-06
1.2986e-05
1.17035e-05
4.29893e-06
-2.23835e-06
-7.01877e-06
-8.95999e-06
-7.62267e-06
-6.91979e-06
-8.45957e-06
-1.09607e-05
-1.38324e-05
-1.50912e-05
-1.30092e-05
-8.04751e-06
1.58201e-07
1.01781e-05
1.95851e-05
2.70504e-05
3.14241e-05
3.43002e-05
3.5708e-05
3.53647e-05
3.30521e-05
2.74051e-05
2.07088e-05
1.43252e-05
9.54497e-06
6.83407e-06
5.18311e-06
5.50324e-06
7.04087e-06
8.60417e-06
1.07584e-05
1.28342e-05
1.46248e-05
1.61123e-05
1.67014e-05
1.62611e-05
1.6246e-05
1.69195e-05
1.63871e-05
1.58844e-05
1.44476e-05
1.15652e-05
1.1229e-05
1.16746e-05
9.95785e-06
6.63295e-06
6.19558e-06
9.15394e-06
1.29541e-05
1.16041e-05
4.07206e-06
-2.35026e-06
-7.02226e-06
-8.86461e-06
-7.47129e-06
-6.72553e-06
-8.39653e-06
-1.10578e-05
-1.41341e-05
-1.55696e-05
-1.35192e-05
-8.48809e-06
-1.8237e-07
1.00105e-05
1.95187e-05
2.70795e-05
3.14912e-05
3.44009e-05
3.58404e-05
3.55178e-05
3.32908e-05
2.76194e-05
2.08968e-05
1.44372e-05
9.56686e-06
6.84292e-06
5.13737e-06
5.43943e-06
7.01454e-06
8.58711e-06
1.0727e-05
1.27627e-05
1.4542e-05
1.61018e-05
1.68876e-05
1.65251e-05
1.6503e-05
1.70841e-05
1.64414e-05
1.59055e-05
1.45599e-05
1.16564e-05
1.13334e-05
1.19111e-05
1.03676e-05
7.04568e-06
6.52277e-06
9.27908e-06
1.2837e-05
1.13562e-05
3.71871e-06
-2.51147e-06
-6.99832e-06
-8.76712e-06
-7.33091e-06
-6.53273e-06
-8.40754e-06
-1.12761e-05
-1.46243e-05
-1.62643e-05
-1.42311e-05
-9.08602e-06
-6.44925e-07
9.74183e-06
1.94019e-05
2.71487e-05
3.15472e-05
3.44992e-05
3.59832e-05
3.57778e-05
3.35757e-05
2.78806e-05
2.11233e-05
1.45576e-05
9.57465e-06
6.83988e-06
5.07266e-06
5.35877e-06
6.9775e-06
8.57078e-06
1.06842e-05
1.26521e-05
1.44122e-05
1.60569e-05
1.70939e-05
1.68252e-05
1.6798e-05
1.72514e-05
1.64702e-05
1.59205e-05
1.47492e-05
1.18536e-05
1.15332e-05
1.21604e-05
1.07975e-05
7.41382e-06
6.79565e-06
9.34255e-06
1.26304e-05
1.09544e-05
3.26371e-06
-2.68743e-06
-6.89842e-06
-8.63984e-06
-7.20911e-06
-6.36458e-06
-8.42117e-06
-1.15668e-05
-1.52592e-05
-1.71426e-05
-1.51536e-05
-9.88755e-06
-1.30907e-06
9.30744e-06
1.91405e-05
2.7023e-05
3.1509e-05
3.4527e-05
3.60742e-05
3.59536e-05
3.38875e-05
2.81725e-05
2.13772e-05
1.46678e-05
9.55172e-06
6.81388e-06
4.99284e-06
5.2619e-06
6.93624e-06
8.57429e-06
1.06524e-05
1.25147e-05
1.4228e-05
1.59285e-05
1.7241e-05
1.70829e-05
1.70743e-05
1.73835e-05
1.64328e-05
1.58523e-05
1.49126e-05
1.2137e-05
1.19538e-05
1.26213e-05
1.14198e-05
7.74505e-06
6.79915e-06
9.10208e-06
1.22169e-05
1.03343e-05
2.68158e-06
-2.93144e-06
-6.73547e-06
-8.37088e-06
-6.96391e-06
-6.08698e-06
-8.01155e-06
-1.15987e-05
-1.57939e-05
-1.799e-05
-1.61295e-05
-1.07867e-05
-2.20039e-06
8.57754e-06
1.8591e-05
2.66303e-05
3.12709e-05
3.4402e-05
3.60246e-05
3.60245e-05
3.41166e-05
2.84048e-05
2.15975e-05
1.47198e-05
9.46619e-06
6.74919e-06
4.89428e-06
5.17349e-06
6.87775e-06
8.58212e-06
1.06163e-05
1.23484e-05
1.40378e-05
1.57687e-05
1.72782e-05
1.72029e-05
1.72375e-05
1.74391e-05
1.63043e-05
1.5693e-05
1.49279e-05
1.22172e-05
1.2319e-05
1.32178e-05
1.24722e-05
8.48258e-06
6.69227e-06
8.38629e-06
1.13731e-05
9.42975e-06
1.94147e-06
-3.31587e-06
-6.76441e-06
-8.15243e-06
-6.59909e-06
-5.37186e-06
-7.07887e-06
-1.09198e-05
-1.58074e-05
-1.84362e-05
-1.68177e-05
-1.13948e-05
-3.00526e-06
7.6497e-06
1.76713e-05
2.57948e-05
3.06606e-05
3.40451e-05
3.58225e-05
3.60015e-05
3.42484e-05
2.84797e-05
2.16177e-05
1.45511e-05
9.19123e-06
6.58784e-06
4.79185e-06
5.09767e-06
6.81127e-06
8.58742e-06
1.04836e-05
1.19735e-05
1.37447e-05
1.52944e-05
1.72449e-05
1.71872e-05
1.73136e-05
1.74052e-05
1.60458e-05
1.55298e-05
1.48554e-05
1.19686e-05
1.20718e-05
1.31298e-05
1.33879e-05
9.7473e-06
6.96764e-06
7.53703e-06
1.0073e-05
8.38714e-06
1.25931e-06
-3.75929e-06
-7.11872e-06
-8.47132e-06
-6.37599e-06
-4.58405e-06
-6.13191e-06
-9.6907e-06
-1.52597e-05
-1.84323e-05
-1.7155e-05
-1.14206e-05
-3.15504e-06
7.11617e-06
1.67404e-05
2.45872e-05
2.9525e-05
3.32741e-05
3.54147e-05
3.59363e-05
3.44082e-05
2.85432e-05
2.14907e-05
1.40945e-05
8.53015e-06
6.11804e-06
4.5495e-06
5.0455e-06
6.80939e-06
8.71717e-06
1.03507e-05
1.13952e-05
1.30616e-05
1.45642e-05
1.66448e-05
1.68739e-05
1.71943e-05
1.71594e-05
1.55495e-05
1.5305e-05
1.51002e-05
1.2189e-05
1.13102e-05
1.17729e-05
1.30902e-05
1.07378e-05
7.67505e-06
7.1117e-06
8.78103e-06
7.48743e-06
9.00477e-07
-3.52927e-06
-7.16725e-06
-9.13773e-06
-7.31314e-06
-4.71792e-06
-6.62493e-06
-9.03686e-06
-1.42611e-05
-1.79906e-05
-1.7436e-05
-1.11595e-05
-2.81683e-06
7.33255e-06
1.65169e-05
2.36891e-05
2.82051e-05
3.20705e-05
3.46726e-05
3.57568e-05
3.46058e-05
2.87096e-05
2.13971e-05
1.35624e-05
7.66529e-06
5.42165e-06
3.79756e-06
4.72829e-06
7.22792e-06
9.04937e-06
1.04263e-05
1.07873e-05
1.22974e-05
1.36291e-05
1.5889e-05
1.62242e-05
1.64901e-05
1.64078e-05
1.44659e-05
1.45551e-05
1.52766e-05
1.34311e-05
1.191e-05
1.04748e-05
1.14769e-05
1.04825e-05
8.33428e-06
7.38079e-06
8.29879e-06
6.8672e-06
6.9187e-07
-2.86211e-06
-6.54029e-06
-9.05839e-06
-8.33382e-06
-5.8469e-06
-7.478e-06
-9.45208e-06
-1.35476e-05
-1.75336e-05
-1.67796e-05
-1.08884e-05
-2.09347e-06
7.74456e-06
1.66776e-05
2.33021e-05
2.72088e-05
3.08112e-05
3.37139e-05
3.54391e-05
3.47766e-05
2.89421e-05
2.13451e-05
1.29942e-05
6.67963e-06
4.60016e-06
3.59267e-06
4.28829e-06
7.81547e-06
9.6978e-06
1.06986e-05
1.02978e-05
1.17552e-05
1.26596e-05
1.52962e-05
1.54248e-05
1.54917e-05
1.53211e-05
1.299e-05
1.32263e-05
1.44927e-05
1.43675e-05
1.41865e-05
1.1326e-05
1.06749e-05
9.46248e-06
8.40449e-06
7.76383e-06
8.672e-06
7.16408e-06
9.07364e-07
-3.56473e-06
-6.07779e-06
-8.69581e-06
-9.10777e-06
-6.92622e-06
-8.80839e-06
-1.01002e-05
-1.3146e-05
-1.6515e-05
-1.60518e-05
-1.03851e-05
-1.83691e-06
7.60204e-06
1.6311e-05
2.25831e-05
2.6024e-05
2.93e-05
3.24776e-05
3.4969e-05
3.49177e-05
2.9275e-05
2.13807e-05
1.2351e-05
5.80132e-06
3.62639e-06
3.07169e-06
3.11384e-06
8.44765e-06
1.08066e-05
1.17627e-05
1.07124e-05
1.13292e-05
1.18156e-05
1.54958e-05
1.49007e-05
1.45331e-05
1.43382e-05
1.2004e-05
1.06017e-05
1.38135e-05
1.37779e-05
1.61234e-05
1.43906e-05
1.17438e-05
9.48729e-06
8.50259e-06
7.8171e-06
9.00629e-06
7.93742e-06
1.67048e-06
-3.29119e-06
-5.44426e-06
-8.47546e-06
-9.65892e-06
-8.12161e-06
-9.78965e-06
-1.09998e-05
-1.35402e-05
-1.59882e-05
-1.50948e-05
-9.3202e-06
-9.94584e-07
7.51782e-06
1.52931e-05
2.11863e-05
2.43377e-05
2.71294e-05
3.04247e-05
3.39086e-05
3.48337e-05
2.97203e-05
2.16388e-05
1.17926e-05
4.78333e-06
2.2528e-06
2.02919e-06
3.65865e-06
8.73833e-06
1.16979e-05
1.29218e-05
1.12377e-05
1.15253e-05
1.16587e-05
1.36102e-05
1.39087e-05
1.40654e-05
1.36379e-05
1.12769e-05
1.05078e-05
1.23063e-05
1.30302e-05
1.6235e-05
1.61592e-05
1.39296e-05
1.04391e-05
9.08936e-06
8.26373e-06
8.57948e-06
8.24905e-06
2.46905e-06
-1.83079e-06
-4.7855e-06
-7.93414e-06
-8.45014e-06
-8.40582e-06
-1.00648e-05
-1.13086e-05
-1.35293e-05
-1.60305e-05
-1.50743e-05
-8.85167e-06
-3.91427e-07
7.46241e-06
1.39664e-05
1.93506e-05
2.26869e-05
2.50477e-05
2.79114e-05
3.20384e-05
3.43025e-05
3.02638e-05
2.23389e-05
1.17512e-05
4.01316e-06
8.09976e-07
5.19811e-07
3.45106e-06
8.57458e-06
1.21302e-05
1.42537e-05
1.09527e-05
1.13145e-05
1.10723e-05
1.25829e-05
1.36191e-05
1.42642e-05
1.36002e-05
1.06661e-05
9.90949e-06
1.21845e-05
1.26328e-05
1.61288e-05
1.67377e-05
1.50979e-05
1.12447e-05
9.8158e-06
9.30517e-06
8.5097e-06
7.88603e-06
2.41477e-06
-9.29202e-07
-3.77456e-06
-7.13207e-06
-7.59922e-06
-7.64849e-06
-9.13292e-06
-1.08741e-05
-1.28644e-05
-1.52934e-05
-1.49332e-05
-8.9919e-06
-1.10817e-07
6.83812e-06
1.1544e-05
1.59624e-05
2.02657e-05
2.35641e-05
2.62796e-05
3.01974e-05
3.32468e-05
3.04734e-05
2.3202e-05
1.24086e-05
3.9659e-06
-2.76067e-07
-9.59716e-07
2.64394e-06
8.29711e-06
1.28022e-05
1.35282e-05
1.02753e-05
1.11516e-05
9.52491e-06
1.08965e-05
1.27543e-05
1.42527e-05
1.38002e-05
1.06274e-05
8.932e-06
1.13565e-05
1.25665e-05
1.65209e-05
1.72294e-05
1.60455e-05
1.17115e-05
1.02486e-05
9.95175e-06
8.9803e-06
8.02908e-06
2.49064e-06
-1.60219e-06
-3.78508e-06
-6.82622e-06
-7.29861e-06
-7.23127e-06
-9.77561e-06
-9.80674e-06
-1.20576e-05
-1.41641e-05
-1.44581e-05
-9.89843e-06
6.88048e-07
7.08474e-06
9.28462e-06
1.13993e-05
1.55582e-05
2.07282e-05
2.50938e-05
2.91253e-05
3.21923e-05
3.00844e-05
2.34037e-05
1.2929e-05
4.48221e-06
-3.26098e-07
-1.78548e-06
1.86388e-06
7.97803e-06
1.32748e-05
1.37484e-05
1.03757e-05
8.72592e-06
8.03315e-06
8.73819e-06
1.09779e-05
1.3004e-05
1.32324e-05
1.09628e-05
8.29354e-06
9.94727e-06
1.1731e-05
1.6769e-05
1.76277e-05
1.70372e-05
1.27611e-05
1.01291e-05
9.75226e-06
9.01918e-06
8.25371e-06
3.19126e-06
-5.7592e-07
-3.03185e-06
-6.79034e-06
-7.85566e-06
-7.71178e-06
-8.82405e-06
-9.88437e-06
-1.21852e-05
-1.35654e-05
-1.49812e-05
-8.27134e-06
1.27212e-06
8.20816e-06
9.31061e-06
7.66995e-06
1.01329e-05
1.63095e-05
2.29578e-05
2.83503e-05
3.11852e-05
2.93585e-05
2.30918e-05
1.29057e-05
5.05716e-06
9.64882e-07
-9.76078e-07
2.0551e-06
8.2069e-06
1.3816e-05
1.41921e-05
1.04664e-05
7.65412e-06
6.83154e-06
6.76694e-06
8.94778e-06
1.10415e-05
1.18317e-05
9.22527e-06
7.5784e-06
8.35402e-06
1.03997e-05
1.62369e-05
1.78e-05
1.77181e-05
1.41563e-05
1.06482e-05
9.17719e-06
8.35609e-06
8.01051e-06
3.71851e-06
-4.01267e-07
-2.81826e-06
-6.72161e-06
-8.91066e-06
-9.36433e-06
-1.03094e-05
-1.14525e-05
-1.33399e-05
-1.17316e-05
-1.51748e-05
-8.0441e-06
1.24115e-06
8.66554e-06
9.85435e-06
6.16524e-06
5.17252e-06
1.15127e-05
2.06547e-05
2.76099e-05
3.02113e-05
2.82066e-05
2.24465e-05
1.31745e-05
6.18504e-06
2.89528e-06
1.41197e-06
3.58598e-06
9.12533e-06
1.46339e-05
1.47762e-05
1.05638e-05
7.21449e-06
4.07214e-06
5.00784e-06
6.96955e-06
8.99899e-06
1.0386e-05
8.20296e-06
7.82302e-06
7.20773e-06
8.5944e-06
1.45892e-05
1.70539e-05
1.78374e-05
1.5434e-05
1.14695e-05
8.23164e-06
6.68024e-06
6.73457e-06
4.07284e-06
3.33904e-07
-2.76429e-06
-6.95844e-06
-1.06632e-05
-1.00739e-05
-1.33035e-05
-1.42605e-05
-1.49396e-05
-2.00261e-05
-1.55271e-05
-9.15645e-06
-3.85538e-07
7.47327e-06
9.85097e-06
6.05994e-06
2.26115e-06
7.43393e-06
1.84655e-05
2.78552e-05
3.02211e-05
2.72223e-05
2.15891e-05
1.35093e-05
7.54104e-06
5.43239e-06
4.35868e-06
5.9454e-06
1.02489e-05
1.50675e-05
1.51758e-05
1.0716e-05
7.3473e-06
4.40802e-06
3.90235e-06
6.53149e-06
7.80242e-06
8.5278e-06
7.43249e-06
9.70648e-06
6.91365e-06
7.95847e-06
1.38768e-05
1.60378e-05
1.71647e-05
1.60051e-05
1.19416e-05
6.96481e-06
3.9422e-06
3.34908e-06
2.33261e-06
2.57663e-07
-2.87912e-06
-7.6146e-06
-1.17809e-05
-1.23535e-05
-1.76003e-05
-1.86734e-05
-1.71628e-05
-1.97759e-05
-1.48904e-05
-9.08838e-06
-6.20079e-07
7.66225e-06
1.14929e-05
8.19542e-06
1.85846e-06
3.5421e-06
1.53703e-05
2.59454e-05
2.92578e-05
2.65111e-05
2.06535e-05
1.32253e-05
8.70197e-06
8.39565e-06
8.40174e-06
9.04214e-06
1.10149e-05
1.45753e-05
1.45241e-05
1.10252e-05
8.25596e-06
5.62667e-06
4.72238e-06
6.59546e-06
9.51546e-06
8.14214e-06
7.03575e-06
5.91347e-06
5.77736e-06
7.14709e-06
1.05015e-05
1.61742e-05
1.7034e-05
1.68384e-05
1.25199e-05
5.61491e-06
1.15771e-06
6.99446e-07
3.99458e-07
-5.62358e-07
-3.20215e-06
-8.3252e-06
-1.40971e-05
-1.52528e-05
-2.08759e-05
-2.31697e-05
-2.02067e-05
-1.40872e-05
-1.13913e-05
-5.86466e-06
1.94106e-06
9.60546e-06
1.40528e-05
1.13841e-05
2.7735e-06
5.52464e-07
1.21168e-05
2.43472e-05
2.97367e-05
2.75951e-05
2.16379e-05
1.37731e-05
8.52172e-06
1.00792e-05
1.12625e-05
1.1045e-05
1.08256e-05
1.22321e-05
1.19355e-05
1.05155e-05
9.76541e-06
8.22493e-06
6.96589e-06
7.57961e-06
8.03121e-06
7.67683e-06
6.87062e-06
4.46446e-06
4.98936e-06
6.41848e-06
9.68666e-06
1.38944e-05
1.83502e-05
1.84349e-05
1.47056e-05
6.60678e-06
4.16179e-07
-1.55307e-06
-2.31195e-06
-1.89478e-06
-2.43926e-06
-7.4478e-06
-1.22297e-05
-1.55254e-05
-2.07542e-05
-2.49014e-05
-2.27864e-05
-1.52737e-05
-8.66207e-06
-2.6647e-06
3.04387e-06
8.9217e-06
1.07482e-05
1.0316e-05
2.47071e-06
2.98859e-07
1.03052e-05
2.29326e-05
2.98224e-05
2.91582e-05
2.34384e-05
1.52312e-05
9.13071e-06
1.07327e-05
1.25494e-05
1.3061e-05
1.15265e-05
1.11669e-05
9.58309e-06
9.53709e-06
1.02217e-05
9.74001e-06
9.515e-06
1.01027e-05
9.77458e-06
8.98319e-06
6.72572e-06
2.72197e-06
1.45451e-06
2.15448e-06
6.31354e-06
1.22824e-05
2.20463e-05
2.0861e-05
1.94018e-05
1.239e-05
4.57731e-06
-1.26041e-06
-4.60456e-06
-3.77189e-06
-2.74574e-06
-6.42972e-06
-1.28951e-05
-1.59036e-05
-2.12365e-05
-2.38632e-05
-2.58431e-05
-1.93646e-05
-1.00474e-05
-3.37378e-06
1.13441e-06
3.83865e-06
4.1397e-06
-4.16524e-07
-6.40083e-06
-7.56736e-06
3.63901e-06
1.8446e-05
2.81864e-05
2.99015e-05
2.70355e-05
1.74412e-05
7.06698e-06
3.51108e-06
9.23756e-06
1.2346e-05
1.16072e-05
1.15031e-05
9.45652e-06
9.46892e-06
1.03505e-05
9.92418e-06
1.05271e-05
1.1009e-05
1.08321e-05
1.08411e-05
9.83798e-06
5.3725e-06
1.45696e-06
5.61109e-07
2.40102e-06
6.53401e-06
1.27856e-05
1.80016e-05
1.76967e-05
1.14885e-05
5.22361e-06
-6.25477e-06
-1.0141e-05
-5.16611e-06
2.36971e-07
-2.435e-06
-1.01066e-05
-1.58674e-05
-2.28974e-05
-2.82316e-05
-2.70135e-05
-2.38063e-05
-1.21976e-05
-7.98135e-06
-4.91981e-06
-3.64556e-06
-4.16908e-06
-1.26165e-05
-1.80376e-05
-1.93509e-05
-8.25006e-06
9.1673e-06
2.26938e-05
2.88287e-05
2.71535e-05
1.7542e-05
4.97456e-06
8.12275e-08
5.49891e-06
9.43939e-06
9.48677e-06
1.07819e-05
8.50081e-06
8.23928e-06
9.0678e-06
9.68619e-06
1.09336e-05
1.17788e-05
1.17822e-05
1.10443e-05
7.27922e-06
2.25296e-06
1.3085e-06
4.06386e-06
7.99305e-06
1.00286e-05
9.797e-06
1.04982e-05
1.16635e-05
8.62662e-06
-2.18061e-06
-1.32643e-05
-2.11238e-05
-1.72412e-05
-7.55971e-06
-4.16732e-06
-9.42427e-06
-1.69038e-05
-2.21931e-05
-2.51579e-05
-1.96504e-05
-1.14175e-05
-5.36548e-06
-9.30946e-06
-1.08191e-05
-9.48888e-06
-1.0709e-05
-1.69161e-05
-3.04825e-05
-2.92787e-05
-1.80642e-05
2.26642e-06
2.20917e-05
2.97883e-05
2.65414e-05
1.75717e-05
6.81332e-06
1.82277e-06
6.35379e-06
9.51238e-06
9.14111e-06
1.03056e-05
8.90759e-06
7.28893e-06
8.26987e-06
8.24201e-06
9.84774e-06
1.28712e-05
1.65316e-05
1.6369e-05
8.59861e-06
2.92221e-08
-2.34694e-06
2.35165e-06
9.27117e-06
1.33005e-05
1.04731e-05
7.69607e-06
7.75439e-06
3.30705e-06
-6.40236e-06
-1.73537e-05
-2.34224e-05
-1.99923e-05
-1.20215e-05
-6.51644e-06
-8.77754e-06
-1.48053e-05
-1.28256e-05
-1.09621e-05
-1.33588e-06
4.3211e-06
9.89238e-06
-4.74921e-06
-1.15322e-05
-6.897e-06
-3.2011e-06
-1.42101e-05
-4.62203e-05
-5.00598e-05
-3.75052e-05
-8.43211e-06
2.39691e-05
3.83544e-05
3.35308e-05
2.06911e-05
8.27365e-06
2.47354e-06
4.87094e-06
7.61507e-06
6.96933e-06
7.39882e-06
5.96444e-06
3.90781e-06
2.81777e-06
3.61957e-06
5.1845e-06
1.11618e-05
1.28052e-05
1.31225e-05
1.13117e-05
9.71324e-06
1.16637e-05
1.21515e-05
1.17934e-05
1.20368e-05
8.88597e-06
6.1673e-06
1.32762e-05
8.6432e-06
-5.03756e-06
-1.65971e-05
-2.3868e-05
-2.27791e-05
-2.17968e-05
-1.57569e-05
-1.14561e-05
-1.10344e-05
-1.07769e-05
-1.08256e-05
-8.09213e-06
-4.23874e-06
-1.33151e-05
-1.70231e-05
-2.31665e-05
-1.17276e-05
4.20523e-06
3.24583e-06
-2.36361e-05
-5.15485e-05
-5.23413e-05
-2.84816e-05
5.90237e-06
2.66915e-05
2.76213e-05
2.08376e-05
1.40617e-05
9.90223e-06
9.92127e-06
1.08342e-05
8.43961e-06
6.74014e-06
5.04007e-06
3.6414e-06
2.86228e-06
4.63666e-07
2.56727e-06
1.80592e-06
-2.6212e-06
-2.27911e-06
5.48464e-06
1.47558e-05
2.22858e-05
2.38552e-05
2.14263e-05
1.56472e-05
1.88479e-06
-1.85488e-05
2.99508e-06
7.94884e-06
4.95458e-06
-1.41269e-06
-5.78066e-06
-7.63502e-06
-5.61531e-06
-4.22681e-06
-1.11068e-06
-5.11948e-06
-9.28289e-06
-8.42786e-06
-3.73739e-06
-8.28558e-07
-5.21427e-06
-9.30776e-06
-1.66191e-05
-2.74043e-05
-5.8242e-06
3.72428e-06
-2.7879e-06
-2.46304e-05
-3.48363e-05
-3.01976e-05
-1.31258e-05
2.25143e-06
1.0901e-05
1.45671e-05
1.43132e-05
9.47583e-06
6.02747e-06
7.75711e-06
6.32465e-06
4.8475e-06
3.23366e-06
4.91097e-06
7.78156e-06
9.32504e-06
4.28342e-06
-3.44115e-06
-1.28018e-05
-8.00728e-06
4.25906e-06
1.50759e-05
1.87688e-05
1.59589e-05
1.53618e-05
1.68574e-05
1.04196e-05
1.03585e-07
1.49338e-06
6.777e-06
5.11691e-06
1.27435e-06
-7.0196e-07
-6.02993e-06
-5.23059e-06
-4.13428e-06
-5.38446e-06
-8.26286e-06
-9.18535e-06
-1.03482e-05
-9.09161e-06
-7.08538e-06
-8.17441e-06
-5.42458e-06
-4.14725e-06
-3.90409e-06
1.29639e-06
7.0441e-06
5.33661e-06
-7.92531e-06
-2.54622e-05
-2.84042e-05
-1.74973e-05
-5.28491e-06
-9.26298e-06
2.17456e-06
1.50165e-06
-3.39007e-06
-4.25002e-06
3.94824e-06
4.39866e-06
2.71915e-06
2.55551e-06
1.08617e-06
1.51789e-06
1.64634e-06
-1.76566e-06
-9.58637e-06
-1.40523e-05
-1.32564e-05
-5.31552e-06
4.9545e-06
8.75838e-06
9.00979e-06
7.10612e-06
1.04491e-05
9.91382e-06
3.64528e-06
-1.03119e-06
2.19439e-06
-2.7931e-07
4.493e-06
5.28966e-06
1.76694e-06
-8.63806e-07
-7.35393e-07
-3.15622e-06
-7.16501e-06
2.10172e-06
3.25691e-06
-1.0003e-06
-6.30663e-06
-8.32204e-06
-7.08029e-06
-9.5883e-07
8.31153e-06
1.87331e-05
2.7825e-05
3.30417e-05
3.6949e-05
3.88002e-05
3.78495e-05
3.38764e-05
2.59154e-05
1.86524e-05
1.3532e-05
1.12735e-05
1.10059e-05
9.91773e-06
8.65997e-06
7.20013e-06
6.74452e-06
8.32643e-06
1.00241e-05
1.01493e-05
8.24355e-06
6.58745e-06
9.22495e-06
1.34923e-05
1.86155e-05
1.9025e-05
1.44296e-05
4.44668e-06
-6.86888e-06
-1.07607e-05
-1.00108e-05
-1.05847e-05
-9.43201e-06
4.35853e-06
2.73277e-05
3.97328e-05
2.90345e-05
7.18883e-06
-1.46021e-05
-2.33256e-05
-1.98352e-05
-1.20218e-05
-3.92004e-06
2.00998e-06
3.20305e-06
-1.03846e-06
-6.3235e-06
-8.3201e-06
-7.14323e-06
-1.05643e-06
8.20335e-06
1.86207e-05
2.77352e-05
3.29269e-05
3.68799e-05
3.87594e-05
3.78325e-05
3.38889e-05
2.5906e-05
1.85992e-05
1.34521e-05
1.11708e-05
1.09353e-05
9.87521e-06
8.64325e-06
7.21754e-06
6.76152e-06
8.34513e-06
1.0077e-05
1.02344e-05
8.35542e-06
6.68655e-06
9.32169e-06
1.36458e-05
1.89366e-05
1.94347e-05
1.48922e-05
4.90109e-06
-6.64062e-06
-1.05815e-05
-9.87325e-06
-1.05992e-05
-9.70404e-06
4.02431e-06
2.72126e-05
3.9944e-05
2.93701e-05
7.45033e-06
-1.45203e-05
-2.3377e-05
-1.99791e-05
-1.21589e-05
-4.05351e-06
1.88655e-06
3.15739e-06
-1.04349e-06
-6.27921e-06
-8.29085e-06
-7.22029e-06
-1.18123e-06
8.06799e-06
1.8489e-05
2.76484e-05
3.28821e-05
3.68283e-05
3.87599e-05
3.78867e-05
3.3993e-05
2.59545e-05
1.85622e-05
1.33558e-05
1.10491e-05
1.08735e-05
9.86881e-06
8.69572e-06
7.31532e-06
6.83452e-06
8.40577e-06
1.01107e-05
1.03644e-05
8.50788e-06
6.73495e-06
9.39853e-06
1.38027e-05
1.93104e-05
1.98613e-05
1.52879e-05
5.14827e-06
-6.77011e-06
-1.07807e-05
-1.00712e-05
-1.10198e-05
-1.04797e-05
3.21865e-06
2.68842e-05
4.01669e-05
2.99365e-05
7.78858e-06
-1.45673e-05
-2.36749e-05
-2.03653e-05
-1.24467e-05
-4.28032e-06
1.73488e-06
3.10303e-06
-1.02777e-06
-6.18495e-06
-8.24242e-06
-7.31167e-06
-1.32909e-06
7.91423e-06
1.83463e-05
2.75686e-05
3.28229e-05
3.68285e-05
3.8809e-05
3.80195e-05
3.41951e-05
2.60712e-05
1.8552e-05
1.32479e-05
1.09178e-05
1.08255e-05
9.90407e-06
8.82781e-06
7.49859e-06
6.97778e-06
8.51145e-06
1.023e-05
1.05665e-05
8.74395e-06
6.76783e-06
9.51249e-06
1.40262e-05
1.98148e-05
2.03741e-05
1.56751e-05
5.1798e-06
-7.36019e-06
-1.15249e-05
-1.08147e-05
-1.20624e-05
-1.18983e-05
1.84677e-06
2.62552e-05
4.03854e-05
3.07126e-05
8.16859e-06
-1.47768e-05
-2.42639e-05
-2.09782e-05
-1.287e-05
-4.60122e-06
1.56203e-06
3.01162e-06
-1.01467e-06
-6.08123e-06
-8.19895e-06
-7.41461e-06
-1.48469e-06
7.75702e-06
1.81971e-05
2.74884e-05
3.27531e-05
3.68272e-05
3.89482e-05
3.82233e-05
3.44775e-05
2.62496e-05
1.8576e-05
1.31316e-05
1.07819e-05
1.07849e-05
9.9712e-06
9.03751e-06
7.76748e-06
7.1719e-06
8.61346e-06
1.03117e-05
1.07767e-05
9.03168e-06
7.29318e-06
9.70272e-06
1.43279e-05
2.05426e-05
2.118e-05
1.64311e-05
5.44658e-06
-8.0317e-06
-1.26047e-05
-1.21254e-05
-1.39611e-05
-1.42022e-05
-2.54401e-07
2.5205e-05
4.04789e-05
3.16e-05
8.59169e-06
-1.50638e-05
-2.50853e-05
-2.17584e-05
-1.3404e-05
-4.96902e-06
1.36055e-06
2.8165e-06
-1.06765e-06
-6.05113e-06
-8.21703e-06
-7.56037e-06
-1.65665e-06
7.60301e-06
1.80405e-05
2.73991e-05
3.26734e-05
3.68129e-05
3.91012e-05
3.84726e-05
3.4807e-05
2.64848e-05
1.86912e-05
1.30634e-05
1.06337e-05
1.07318e-05
1.00416e-05
9.29707e-06
8.11861e-06
7.44083e-06
8.70206e-06
1.02517e-05
1.08518e-05
9.22833e-06
7.69468e-06
9.94433e-06
1.46843e-05
2.11062e-05
2.20566e-05
1.76318e-05
6.62133e-06
-7.62161e-06
-1.27023e-05
-1.3042e-05
-1.63689e-05
-1.76271e-05
-3.54203e-06
2.33256e-05
4.00852e-05
3.23817e-05
8.96518e-06
-1.52214e-05
-2.59231e-05
-2.25451e-05
-1.40028e-05
-5.50777e-06
6.60394e-07
2.34887e-06
-1.32265e-06
-6.21688e-06
-8.35265e-06
-7.80517e-06
-1.93196e-06
7.38404e-06
1.78216e-05
2.72531e-05
3.25847e-05
3.68007e-05
3.92685e-05
3.87457e-05
3.51499e-05
2.67695e-05
1.88593e-05
1.30101e-05
1.04963e-05
1.05704e-05
1.00688e-05
9.53398e-06
8.4978e-06
7.79386e-06
8.84683e-06
1.00992e-05
1.07579e-05
9.2127e-06
7.79889e-06
1.00666e-05
1.49288e-05
2.14874e-05
2.26848e-05
1.86611e-05
8.05142e-06
-5.58768e-06
-1.10316e-05
-1.1494e-05
-1.69768e-05
-2.09229e-05
-8.04662e-06
1.99543e-05
3.85909e-05
3.26106e-05
9.05298e-06
-1.54031e-05
-2.65856e-05
-2.32052e-05
-1.44575e-05
-6.0702e-06
3.28752e-07
1.6403e-06
-1.85547e-06
-6.63253e-06
-8.56207e-06
-8.13031e-06
-2.31603e-06
6.9746e-06
1.73557e-05
2.68469e-05
3.23565e-05
3.67496e-05
3.94829e-05
3.91008e-05
3.55016e-05
2.70197e-05
1.89705e-05
1.28819e-05
1.03411e-05
1.04508e-05
9.90789e-06
9.70234e-06
8.81959e-06
8.13903e-06
9.03248e-06
9.9922e-06
1.06946e-05
9.14095e-06
7.7e-06
9.93878e-06
1.49436e-05
2.16192e-05
2.27701e-05
1.87781e-05
8.35568e-06
-4.48572e-06
-8.76029e-06
-8.70209e-06
-1.40863e-05
-2.0976e-05
-1.17293e-05
1.53419e-05
3.5361e-05
3.18691e-05
8.64293e-06
-1.5985e-05
-2.69821e-05
-2.39356e-05
-1.49643e-05
-6.66223e-06
-5.01049e-07
7.81408e-07
-2.25444e-06
-7.24021e-06
-8.65939e-06
-8.1918e-06
-2.54813e-06
6.54129e-06
1.66733e-05
2.60259e-05
3.17073e-05
3.63916e-05
3.95734e-05
3.95354e-05
3.59919e-05
2.73602e-05
1.90431e-05
1.25892e-05
9.9853e-06
1.01948e-05
9.91908e-06
9.82141e-06
9.08823e-06
8.41197e-06
9.08488e-06
9.77489e-06
1.06598e-05
9.42177e-06
7.75911e-06
9.83359e-06
1.48792e-05
2.16071e-05
2.27166e-05
1.82164e-05
7.70065e-06
-4.87214e-06
-8.64923e-06
-6.39738e-06
-8.84841e-06
-1.68277e-05
-1.17993e-05
1.1388e-05
3.05747e-05
2.94847e-05
7.69276e-06
-1.68412e-05
-2.72374e-05
-2.45508e-05
-1.55252e-05
-7.11904e-06
-1.40718e-06
6.78108e-07
-2.14748e-06
-7.51455e-06
-8.88069e-06
-8.13353e-06
-2.38271e-06
6.4676e-06
1.61119e-05
2.50305e-05
3.07059e-05
3.55911e-05
3.92746e-05
3.9809e-05
3.65482e-05
2.7883e-05
1.92609e-05
1.234e-05
9.5433e-06
9.82079e-06
9.28181e-06
9.89171e-06
9.27493e-06
8.57057e-06
8.95968e-06
9.25542e-06
1.02403e-05
9.41327e-06
8.00557e-06
9.49345e-06
1.47956e-05
2.16719e-05
2.31628e-05
1.87948e-05
7.84651e-06
-5.30792e-06
-9.76056e-06
-7.03615e-06
-5.01609e-06
-1.01602e-05
-7.85981e-06
1.02772e-05
2.57945e-05
2.54276e-05
5.53085e-06
-1.71785e-05
-2.65902e-05
-2.41637e-05
-1.58983e-05
-7.68791e-06
-2.89871e-06
8.35481e-08
-1.7965e-06
-6.93049e-06
-8.46712e-06
-8.05791e-06
-2.0937e-06
6.73792e-06
1.58859e-05
2.42106e-05
2.96891e-05
3.45704e-05
3.86614e-05
3.98308e-05
3.70289e-05
2.84283e-05
1.95047e-05
1.21279e-05
9.20322e-06
9.61234e-06
9.11614e-06
1.04274e-05
9.25043e-06
8.74441e-06
8.64721e-06
8.76019e-06
9.49531e-06
8.91665e-06
7.97373e-06
8.33755e-06
1.39569e-05
2.12833e-05
2.35346e-05
1.96913e-05
9.30553e-06
-3.5923e-06
-9.39635e-06
-8.95108e-06
-4.97742e-06
-5.25688e-06
-2.7654e-06
1.24179e-05
2.32832e-05
2.13111e-05
2.47733e-06
-1.82254e-05
-2.5441e-05
-2.3042e-05
-1.52762e-05
-8.02893e-06
-3.6323e-06
-1.58028e-06
-2.70857e-06
-6.3821e-06
-8.20036e-06
-7.49307e-06
-1.79012e-06
7.10757e-06
1.59218e-05
2.35598e-05
2.86959e-05
3.35286e-05
3.7929e-05
3.97519e-05
3.748e-05
2.89823e-05
1.96329e-05
1.16381e-05
8.61096e-06
9.22212e-06
9.39678e-06
1.12611e-05
1.0099e-05
9.55565e-06
8.97538e-06
8.42925e-06
8.60307e-06
8.10417e-06
7.15623e-06
7.03889e-06
1.17874e-05
1.91311e-05
2.27121e-05
2.01833e-05
1.0547e-05
-1.20876e-06
-6.6329e-06
-8.66087e-06
-5.82519e-06
-3.49676e-06
2.39903e-06
1.41289e-05
2.34645e-05
1.90348e-05
2.78351e-07
-1.83008e-05
-2.43659e-05
-2.21937e-05
-1.44075e-05
-7.98296e-06
-4.61938e-06
-2.69246e-06
-4.25695e-06
-7.09547e-06
-7.97827e-06
-6.01398e-06
-1.27303e-06
7.0564e-06
1.57162e-05
2.30367e-05
2.77129e-05
3.23404e-05
3.71514e-05
3.96751e-05
3.79751e-05
2.96305e-05
1.97631e-05
1.09195e-05
7.59801e-06
8.34229e-06
9.12543e-06
1.25186e-05
1.10374e-05
1.10409e-05
1.0276e-05
8.98815e-06
8.61777e-06
7.78975e-06
6.62684e-06
5.22837e-06
9.07066e-06
1.56093e-05
1.94561e-05
1.97186e-05
1.10943e-05
9.02764e-07
-2.99226e-06
-5.8534e-06
-5.16849e-06
-2.65087e-06
3.98208e-06
1.53969e-05
2.28114e-05
1.83868e-05
1.88596e-07
-1.74437e-05
-2.44514e-05
-2.16705e-05
-1.31673e-05
-8.42839e-06
-5.98638e-06
-4.29242e-06
-6.31751e-06
-7.78508e-06
-9.1985e-06
-4.55568e-06
9.91461e-07
7.28762e-06
1.444e-05
2.15505e-05
2.62833e-05
3.06782e-05
3.60646e-05
3.96185e-05
3.86417e-05
3.05881e-05
2.00888e-05
1.00279e-05
6.36048e-06
7.12851e-06
8.31575e-06
1.09684e-05
1.11147e-05
1.18802e-05
1.16295e-05
1.01119e-05
9.62517e-06
8.49661e-06
6.91423e-06
5.33641e-06
7.25765e-06
1.20735e-05
1.60652e-05
1.79933e-05
1.18386e-05
3.6225e-06
6.20646e-07
-1.83961e-06
-2.96566e-06
-1.89693e-06
4.73939e-06
1.50265e-05
2.1216e-05
1.76296e-05
1.27937e-06
-1.55595e-05
-2.14239e-05
-1.81663e-05
-1.21815e-05
-8.46015e-06
-6.59144e-06
-5.61152e-06
-7.17504e-06
-1.05878e-05
-1.06369e-05
-4.66906e-06
2.91783e-06
9.71247e-06
1.36194e-05
1.85213e-05
2.33414e-05
2.79355e-05
3.41144e-05
3.90979e-05
3.95487e-05
3.22021e-05
2.10957e-05
9.27053e-06
4.96038e-06
5.72289e-06
7.32332e-06
9.71485e-06
1.05454e-05
1.18334e-05
1.21453e-05
1.09505e-05
1.06775e-05
9.80923e-06
8.02236e-06
6.13893e-06
6.82085e-06
9.43951e-06
1.25694e-05
1.51538e-05
1.23752e-05
4.82542e-06
3.72833e-06
2.05224e-06
2.23207e-07
-8.75266e-07
4.56953e-06
1.3919e-05
1.89985e-05
1.63016e-05
2.09072e-06
-1.47955e-05
-1.67267e-05
-1.46141e-05
-1.14097e-05
-8.17011e-06
-6.77689e-06
-6.3556e-06
-7.43954e-06
-1.0624e-05
-1.12766e-05
-3.44376e-06
3.4325e-06
1.0881e-05
1.41705e-05
1.49469e-05
1.84094e-05
2.34551e-05
3.10107e-05
3.77492e-05
4.02868e-05
3.41701e-05
2.2744e-05
9.03236e-06
3.76566e-06
4.38249e-06
6.27982e-06
8.88694e-06
1.00227e-05
1.14291e-05
1.18517e-05
1.09091e-05
9.82153e-06
1.03635e-05
9.16524e-06
7.07883e-06
7.08333e-06
8.11869e-06
9.72061e-06
1.18139e-05
1.07956e-05
5.25043e-06
5.93778e-06
5.20837e-06
3.45745e-06
7.80126e-07
4.12128e-06
1.2117e-05
1.67092e-05
1.48916e-05
2.59855e-06
-1.26735e-05
-1.27894e-05
-1.20721e-05
-1.05213e-05
-7.84079e-06
-5.7987e-06
-6.7311e-06
-7.89828e-06
-1.06841e-05
-1.08428e-05
-1.02689e-06
3.89787e-06
1.05816e-05
1.32306e-05
1.1714e-05
1.15548e-05
1.69275e-05
2.59521e-05
3.47514e-05
3.97982e-05
3.57147e-05
2.39181e-05
9.22663e-06
2.86897e-06
3.3318e-06
5.16451e-06
8.29085e-06
9.85459e-06
1.11025e-05
1.12871e-05
1.05597e-05
1.07798e-05
1.13858e-05
9.69445e-06
7.47832e-06
7.13792e-06
7.47564e-06
7.72021e-06
8.99163e-06
8.49029e-06
3.16705e-06
6.32196e-06
7.12463e-06
5.7458e-06
2.79794e-06
4.20936e-06
1.018e-05
1.43809e-05
1.38972e-05
3.68083e-06
-8.76692e-06
-1.02352e-05
-1.04786e-05
-1.01157e-05
-7.70875e-06
-7.61539e-06
-7.16197e-06
-8.29994e-06
-1.17169e-05
-1.24602e-05
-4.81304e-06
2.9264e-06
1.00276e-05
1.21176e-05
9.53672e-06
6.91796e-06
1.12751e-05
2.06959e-05
3.03114e-05
3.65664e-05
3.48828e-05
2.46391e-05
8.96084e-06
2.44211e-06
2.9675e-06
4.83284e-06
7.8086e-06
9.66863e-06
1.08472e-05
1.05543e-05
9.93659e-06
1.13057e-05
1.22287e-05
1.05306e-05
7.63932e-06
6.62578e-06
6.72576e-06
5.99901e-06
6.64285e-06
7.39138e-06
4.86009e-06
5.01021e-06
6.73716e-06
5.70518e-06
3.67404e-06
4.35383e-06
8.3533e-06
1.19056e-05