/*--------------------------------*- C++ -*----------------------------------*\
| =========                 |                                                 |
| \\      /  F ield         | OpenFOAM: The Open Source CFD Toolbox           |
|  \\    /   O peration     | Version:  2.3.0                                 |
|   \\  /    A nd           | Web:      www.OpenFOAM.org                      |
|    \\/     M anipulation  |                                                 |
\*---------------------------------------------------------------------------*/
FoamFile
{
    version     2.0;
    format      ascii;
    class       volScalarField;
    location    "200";
    object      p;
}
// * * * * * * * * * * * * * * * * * * * * * * * * * * * * * * * * * * * * * //

dimensions      [0 2 -2 0 0 0 0];

internalField   nonuniform List<scalar> 
60000
(
-6.1448e-05
-1.49887e-05
-4.3044e-06
-2.73449e-05
-4.89135e-05
-4.81495e-05
-4.29718e-05
-4.34924e-05
-6.26186e-05
-6.46302e-05
-6.27479e-05
-5.43504e-05
6.00679e-06
7.97927e-05
0.000108612
8.67002e-05
3.38072e-05
-8.9241e-06
-1.47375e-05
-7.29722e-06
-1.90041e-05
-5.1726e-05
-7.84581e-05
-7.20728e-05
-3.38961e-05
7.68836e-06
-2.44433e-06
-5.87861e-05
-7.98816e-05
-4.51335e-05
1.4781e-05
8.75851e-05
0.000149745
0.000117055
9.12653e-06
-7.51248e-05
-0.000114976
-0.000139712
-0.000151612
-0.000119669
-6.17603e-05
-1.47399e-05
-4.06312e-06
-2.73924e-05
-4.94238e-05
-4.86439e-05
-4.41142e-05
-4.44705e-05
-6.34012e-05
-6.50391e-05
-6.26815e-05
-5.50348e-05
5.12806e-06
7.97786e-05
0.000109188
8.74796e-05
3.42177e-05
-8.63119e-06
-1.4127e-05
-6.70348e-06
-1.8543e-05
-5.12358e-05
-7.83931e-05
-7.22604e-05
-3.39184e-05
8.02887e-06
-2.34945e-06
-5.90965e-05
-8.21389e-05
-4.68581e-05
1.28369e-05
8.70314e-05
0.00015134
0.000119427
1.02171e-05
-7.52811e-05
-0.000115423
-0.000140354
-0.000152496
-0.000120614
-6.15267e-05
-1.36477e-05
-3.16638e-06
-2.69224e-05
-4.95929e-05
-4.87709e-05
-4.63863e-05
-4.66717e-05
-6.54674e-05
-6.63279e-05
-6.26843e-05
-5.6067e-05
3.97348e-06
8.00159e-05
0.000110184
8.85219e-05
3.42875e-05
-9.19829e-06
-1.43917e-05
-6.27646e-06
-1.8183e-05
-5.07592e-05
-7.90692e-05
-7.33337e-05
-3.45697e-05
8.01649e-06
-2.46612e-06
-5.86111e-05
-8.41056e-05
-4.86612e-05
1.01011e-05
8.71188e-05
0.000156506
0.000124091
1.20558e-05
-7.59933e-05
-0.000116547
-0.000141748
-0.000154107
-0.000121608
-6.02902e-05
-1.08332e-05
-1.96472e-06
-2.5996e-05
-4.92949e-05
-4.86989e-05
-4.8843e-05
-4.96119e-05
-6.95214e-05
-6.96051e-05
-6.42491e-05
-5.85887e-05
1.65185e-06
8.05424e-05
0.000111714
8.96276e-05
3.42346e-05
-1.06749e-05
-1.58511e-05
-7.16383e-06
-1.87077e-05
-5.22743e-05
-8.13529e-05
-7.59152e-05
-3.69069e-05
6.69345e-06
-3.15576e-06
-5.70858e-05
-8.42304e-05
-4.88959e-05
7.17928e-06
8.78575e-05
0.000163607
0.000131773
1.46462e-05
-7.74003e-05
-0.000118463
-0.000144153
-0.000155967
-0.000122831
-5.85828e-05
-6.30826e-06
1.39593e-06
-2.39454e-05
-4.91234e-05
-4.8693e-05
-4.62352e-05
-5.11545e-05
-7.49215e-05
-7.55777e-05
-6.68541e-05
-6.43743e-05
-5.37305e-06
7.72275e-05
0.000116093
9.18196e-05
3.47827e-05
-1.21342e-05
-1.81401e-05
-9.25902e-06
-2.02008e-05
-5.60512e-05
-8.79995e-05
-8.15593e-05
-4.00753e-05
4.49322e-06
-5.07895e-06
-5.61704e-05
-8.2359e-05
-4.61995e-05
6.54525e-06
8.95731e-05
0.000169959
0.000142244
1.8015e-05
-7.93232e-05
-0.000120765
-0.000147534
-0.000158317
-0.000124818
-5.89898e-05
-4.29655e-07
6.55354e-06
-2.17983e-05
-4.99067e-05
-5.01163e-05
-4.41533e-05
-5.18285e-05
-7.7293e-05
-8.15381e-05
-7.13476e-05
-7.02036e-05
-1.9671e-05
6.87454e-05
0.000116395
9.43267e-05
3.53435e-05
-1.27817e-05
-2.10438e-05
-1.2295e-05
-2.16209e-05
-5.93798e-05
-9.78522e-05
-9.36918e-05
-4.72968e-05
4.01631e-06
-4.12904e-06
-5.23311e-05
-7.97737e-05
-4.52305e-05
5.60723e-06
8.91715e-05
0.000177307
0.000155451
2.25348e-05
-8.18515e-05
-0.00012322
-0.000150562
-0.000161554
-0.000128572
-6.1408e-05
3.9602e-06
1.30944e-05
-1.96218e-05
-5.24055e-05
-5.29918e-05
-4.23396e-05
-4.93339e-05
-7.60596e-05
-8.15201e-05
-7.1914e-05
-7.57583e-05
-3.96835e-05
5.31032e-05
0.000111166
9.28676e-05
3.36288e-05
-1.48281e-05
-2.39668e-05
-1.51332e-05
-2.407e-05
-6.20889e-05
-0.000105263
-0.000108332
-6.26896e-05
-8.88309e-07
3.58263e-07
-4.35578e-05
-7.22939e-05
-4.10897e-05
1.99971e-07
7.16628e-05
0.000168757
0.000161506
2.66473e-05
-8.33003e-05
-0.000125545
-0.000151464
-0.000161599
-0.000131926
-6.11786e-05
7.20647e-06
2.18564e-05
-1.778e-05
-5.64581e-05
-5.68404e-05
-4.01562e-05
-4.45062e-05
-7.14921e-05
-7.92687e-05
-6.39138e-05
-7.43083e-05
-5.14237e-05
3.13044e-05
9.61933e-05
8.27031e-05
2.63796e-05
-1.98711e-05
-2.81087e-05
-1.83822e-05
-2.56546e-05
-6.61555e-05
-0.000112753
-0.000120658
-8.17331e-05
-1.17478e-05
4.9667e-06
-3.54132e-05
-6.49145e-05
-3.48139e-05
-1.32886e-06
5.64514e-05
0.000142487
0.000146555
2.24965e-05
-8.3485e-05
-0.0001234
-0.000150318
-0.000161523
-0.000135888
-7.50382e-05
4.95428e-06
3.22056e-05
-1.30503e-05
-6.11646e-05
-6.03931e-05
-3.80168e-05
-3.91945e-05
-6.76153e-05
-7.85763e-05
-5.67806e-05
-6.62887e-05
-5.18145e-05
1.18243e-05
7.72038e-05
6.09809e-05
1.17649e-05
-2.68498e-05
-3.30402e-05
-2.06514e-05
-2.44213e-05
-6.83026e-05
-0.000119802
-0.000130986
-9.94595e-05
-2.47965e-05
6.68458e-06
-2.73084e-05
-5.78078e-05
-2.81411e-05
2.9163e-07
4.35816e-05
0.000108375
0.000119332
1.33972e-05
-8.06446e-05
-0.000115218
-0.000143711
-0.000163347
-0.000142511
-9.33393e-05
-6.28251e-06
3.84511e-05
-5.35713e-06
-6.28501e-05
-6.0339e-05
-3.59046e-05
-4.00141e-05
-6.8772e-05
-7.3965e-05
-5.2418e-05
-5.94294e-05
-5.39137e-05
8.72613e-08
6.83527e-05
3.97833e-05
-4.71158e-06
-3.05676e-05
-3.38781e-05
-2.30472e-05
-2.38533e-05
-6.44767e-05
-0.000120455
-0.000130564
-0.000109262
-3.10292e-05
9.69567e-06
-1.82119e-05
-5.2518e-05
-2.38191e-05
5.73629e-06
3.49509e-05
7.21006e-05
8.84061e-05
5.55681e-06
-7.68114e-05
-0.000108714
-0.000137903
-0.000160247
-0.000148013
-0.000100602
-2.17139e-05
3.30507e-05
2.14667e-06
-6.10139e-05
-5.73293e-05
-3.25607e-05
-4.46852e-05
-7.83564e-05
-7.71987e-05
-4.95281e-05
-5.97906e-05
-5.68239e-05
-1.52052e-05
4.36169e-05
2.41278e-05
-2.35322e-05
-3.64033e-05
-3.15635e-05
-2.2379e-05
-2.17066e-05
-5.62358e-05
-0.000114226
-0.000130482
-0.000117733
-3.40562e-05
1.32532e-05
-6.39035e-06
-4.506e-05
-2.62219e-05
1.38544e-06
2.48595e-05
5.92739e-05
6.33646e-05
-1.63494e-06
-7.59246e-05
-0.0001124
-0.000145203
-0.000155861
-0.000142483
-0.000107606
-3.33428e-05
2.0835e-05
-1.99763e-06
-5.20668e-05
-4.98441e-05
-2.62238e-05
-4.79187e-05
-8.97263e-05
-8.94852e-05
-5.18667e-05
-4.80957e-05
-7.26702e-05
-2.77479e-05
2.70284e-05
1.17147e-05
-3.90266e-05
-4.8225e-05
-3.46118e-05
-2.24672e-05
-1.80626e-05
-4.44434e-05
-0.000100328
-0.000131283
-0.000108654
-4.11372e-05
1.52526e-05
3.7465e-06
-3.09779e-05
-2.61872e-05
-1.10178e-05
4.04347e-06
2.59864e-05
3.47241e-05
-1.0059e-05
-7.27832e-05
-0.000113502
-0.000154699
-0.000165971
-0.000143466
-0.000131505
-5.20433e-05
5.47185e-06
-1.27293e-05
-5.2406e-05
-4.25074e-05
-2.35319e-05
-5.41672e-05
-9.57724e-05
-9.26711e-05
-5.11851e-05
-2.99942e-05
-4.28198e-05
-2.03344e-05
1.14916e-05
5.64072e-07
-4.47935e-05
-5.1471e-05
-3.64578e-05
-2.29853e-05
-1.87323e-05
-4.28695e-05
-8.99912e-05
-0.000112813
-9.3682e-05
-5.01111e-05
7.47014e-06
7.53948e-06
-1.97304e-05
-2.09996e-05
-1.40902e-05
-1.6636e-05
-1.02665e-05
2.87734e-06
-2.49456e-05
-7.10031e-05
-0.000110821
-0.000152782
-0.00017624
-0.000166132
-0.000153569
-7.40305e-05
-1.0205e-05
-3.1357e-05
-6.87865e-05
-5.36688e-05
-3.66622e-05
-7.58243e-05
-0.000117306
-9.82126e-05
-4.49347e-05
-9.0894e-06
-1.40091e-05
-1.28736e-06
1.35849e-05
-3.05301e-06
-4.51994e-05
-5.04769e-05
-3.92556e-05
-2.7995e-05
-2.4912e-05
-4.80267e-05
-8.4513e-05
-9.22124e-05
-7.36552e-05
-4.54479e-05
-5.8618e-06
9.89162e-07
-1.87748e-05
-1.68429e-05
-7.48534e-06
-1.95732e-05
-3.9715e-05
-3.49041e-05
-4.3345e-05
-6.72489e-05
-0.00010484
-0.000151222
-0.000174962
-0.000175544
-0.000156319
-8.92765e-05
-2.74772e-05
-4.60026e-05
-8.44559e-05
-7.68251e-05
-6.02209e-05
-8.74952e-05
-0.000122545
-0.000131569
-5.61453e-05
3.09702e-06
1.14566e-05
2.25152e-05
2.52274e-05
-3.6613e-07
-4.06445e-05
-4.81082e-05
-3.4824e-05
-2.65547e-05
-3.01585e-05
-6.13139e-05
-9.62796e-05
-8.84802e-05
-5.83707e-05
-3.52184e-05
-8.12933e-06
-3.15647e-06
-2.57273e-05
-2.88714e-05
-9.98907e-06
-7.48049e-06
-4.01775e-05
-7.49699e-05
-7.14036e-05
-8.32626e-05
-0.000104873
-0.000151325
-0.00017403
-0.00016884
-0.00015087
-0.000104758
-4.14232e-05
-4.60813e-05
-7.78755e-05
-8.97617e-05
-6.5407e-05
-7.66068e-05
-9.12777e-05
-0.000120509
-6.95348e-05
-3.40277e-06
4.66734e-05
5.6046e-05
4.45745e-05
1.39855e-05
-3.00517e-05
-4.21084e-05
-3.04672e-05
-2.54515e-05
-3.50604e-05
-6.83221e-05
-9.99038e-05
-8.62539e-05
-5.66699e-05
-4.39287e-05
-2.10331e-05
-2.07757e-05
-3.95373e-05
-4.45207e-05
-2.62222e-05
-1.14874e-06
-6.90815e-06
-8.15197e-05
-0.000109515
-0.00011027
-0.000119073
-0.000152002
-0.000172765
-0.000162146
-0.000131474
-0.000101344
-5.37344e-05
-2.29019e-05
-4.89255e-05
-7.54887e-05
-6.08931e-05
-9.01758e-05
-9.23854e-05
-7.08392e-05
-5.7934e-05
-5.52956e-06
5.23692e-05
6.79872e-05
5.42766e-05
1.92336e-05
-2.03368e-05
-3.03928e-05
-2.59292e-05
-2.78682e-05
-3.01894e-05
-5.31493e-05
-8.38324e-05
-7.56575e-05
-5.51731e-05
-4.53756e-05
-4.37836e-05
-5.35344e-05
-7.146e-05
-6.41643e-05
-3.6166e-05
-7.23657e-06
1.26279e-05
-5.11686e-05
-0.000104359
-0.0001194
-0.00012636
-0.000151255
-0.000168087
-0.00015022
-0.000120422
-8.59053e-05
-4.53957e-05
-2.51373e-05
-3.73833e-05
-7.26982e-05
-0.000100249
-0.000124312
-0.000126309
-0.000105245
-7.17689e-05
-1.68535e-05
5.33377e-05
9.62437e-05
8.80456e-05
4.14268e-05
1.06775e-06
-1.48357e-05
-1.70633e-05
-1.6523e-05
-8.77297e-06
-1.69132e-05
-4.73351e-05
-5.00836e-05
-4.00187e-05
-4.3077e-05
-5.11657e-05
-6.92042e-05
-8.76255e-05
-7.88645e-05
-5.66283e-05
-3.12021e-05
-2.17412e-05
-3.73004e-05
-8.00844e-05
-0.000109763
-0.000116811
-0.000128336
-0.00014061
-0.000142031
-0.000120861
-9.22117e-05
-3.5075e-05
-1.90838e-05
-2.71908e-05
-7.03898e-05
-0.000107217
-0.000128733
-0.00014585
-0.000120331
-7.10559e-05
-2.65605e-05
2.24696e-05
7.56207e-05
8.42239e-05
4.44145e-05
1.73651e-05
2.51025e-05
2.13703e-05
1.23807e-05
1.89828e-05
1.39952e-05
-1.77327e-05
-2.59187e-05
-1.53905e-05
-1.63493e-05
-3.76223e-05
-7.04497e-05
-9.2742e-05
-8.24679e-05
-6.54745e-05
-6.68654e-05
-6.18234e-05
-7.6079e-05
-0.000103376
-0.000116155
-0.000107713
-0.000116941
-0.000142261
-0.000134
-0.000110535
-9.43858e-05
-8.63342e-05
-4.13266e-05
-4.44018e-05
-7.26592e-05
-0.000103092
-0.000116415
-0.000114763
-0.000109784
-6.76576e-05
-2.28595e-05
1.68642e-05
6.50122e-05
7.63989e-05
4.12383e-05
3.4979e-06
-1.3255e-05
4.18365e-06
1.27839e-05
4.04635e-05
4.5271e-05
1.38701e-05
-8.05805e-06
7.57331e-06
1.23881e-05
-1.30573e-05
-5.22634e-05
-7.57847e-05
-7.01116e-05
-6.76799e-05
-7.91578e-05
-8.19133e-05
-7.32379e-05
-0.000105895
-0.000134064
-0.000129683
-0.000117599
-0.000117228
-0.000113849
-6.94406e-05
-6.69691e-05
-2.18591e-05
-2.27536e-05
-3.33079e-05
-6.78449e-05
-9.64468e-05
-0.000111093
-9.32672e-05
-7.75881e-05
-5.55527e-05
-3.54726e-05
-1.72573e-05
8.59016e-06
3.98627e-05
4.52763e-05
2.25941e-05
1.65592e-05
2.71499e-05
2.17798e-05
2.90808e-05
2.45447e-05
8.21532e-06
-7.92747e-06
3.31699e-06
2.82578e-05
1.208e-05
-2.09407e-05
-5.6334e-05
-5.98735e-05
-5.26328e-05
-6.16345e-05
-6.19594e-05
-6.21417e-05
-8.72308e-05
-0.000115264
-0.000114415
-9.82136e-05
-8.2296e-05
-6.68974e-05
-1.97252e-05
-3.94469e-05
-4.50302e-05
-3.70396e-05
-4.64525e-05
-6.41348e-05
-8.23069e-05
-8.71105e-05
-7.75751e-05
-6.9494e-05
-5.78174e-05
-4.7498e-05
-3.90009e-05
-1.55405e-05
2.10548e-05
4.05697e-05
2.12931e-05
-1.12175e-05
-1.99424e-05
-2.57705e-05
-2.83652e-05
-1.99043e-05
-2.49377e-05
-4.2093e-05
-3.80126e-05
-2.66561e-05
-2.50429e-05
-3.07452e-05
-4.70472e-05
-5.35307e-05
-5.04428e-05
-7.78641e-05
-0.00010342
-0.00010889
-0.000111914
-0.000114558
-0.000101942
-8.10401e-05
-4.61703e-05
-1.86213e-05
-1.73535e-05
-3.71382e-05
-4.61936e-05
-4.11011e-05
-4.58244e-05
-5.41525e-05
-6.46241e-05
-7.75952e-05
-7.71216e-05
-7.67863e-05
-6.61574e-05
-4.57927e-05
-2.66241e-05
-2.3727e-05
-2.67246e-06
1.96815e-06
-8.26729e-06
-3.06342e-05
-5.28782e-05
-6.32683e-05
-5.13372e-05
-5.48436e-05
-5.12047e-05
-5.28601e-05
-4.76346e-05
-3.57562e-05
-4.41383e-05
-3.59085e-05
-3.86813e-05
-4.95654e-05
-4.96766e-05
-7.5115e-05
-0.000113578
-0.000139951
-0.000134361
-0.000121399
-9.15358e-05
-6.31174e-05
-3.9538e-05
-2.00416e-05
-3.66667e-05
-4.79929e-05
-5.03988e-05
-3.90977e-05
-4.16783e-05
-5.18905e-05
-5.70678e-05
-5.70555e-05
-6.0998e-05
-5.84841e-05
-4.6613e-05
-3.27942e-05
-1.82828e-05
-1.03373e-05
-6.01799e-06
-4.54236e-06
-5.31301e-06
-1.19348e-05
-1.70217e-05
2.46266e-06
-1.32998e-05
-3.20834e-05
-4.04142e-05
-5.1036e-05
-6.01002e-05
-5.76414e-05
-5.15206e-05
-3.86294e-05
-3.1526e-05
-4.04027e-05
-4.07223e-05
-4.55916e-05
-7.94934e-05
-9.71222e-05
-0.000115419
-0.00011161
-8.73335e-05
-6.00514e-05
-4.88252e-05
-4.23907e-05
-6.59818e-05
-6.69761e-05
-6.56897e-05
-5.23399e-05
-4.7927e-05
-4.82662e-05
-4.29623e-05
-4.10262e-05
-4.07091e-05
-3.82111e-05
-3.29424e-05
-2.93541e-05
-2.44413e-05
-2.02165e-05
-1.37041e-05
-8.9306e-06
1.75347e-06
2.48094e-06
-4.47057e-07
7.79315e-06
2.75377e-06
-1.83242e-05
-2.37018e-05
-3.24256e-05
-4.79474e-05
-5.60759e-05
-5.51026e-05
-4.58772e-05
-3.37435e-05
-2.86433e-05
-2.64726e-05
-2.61737e-05
-5.22773e-05
-8.60927e-05
-0.000103653
-9.90595e-05
-7.61085e-05
-5.25709e-05
-5.60545e-05
-6.82211e-05
-9.46177e-05
-8.26599e-05
-7.43853e-05
-9.10456e-05
-8.99725e-05
-4.08905e-05
-8.3587e-06
-3.99439e-05
-7.98909e-05
-8.1627e-05
-6.08747e-05
-4.20538e-05
-3.14122e-05
-1.73992e-05
5.70688e-06
1.94024e-05
-7.99221e-07
-3.63754e-05
-5.63069e-05
-4.08576e-05
-1.56418e-05
-2.79155e-05
-5.17157e-05
-3.17317e-05
2.80735e-05
7.2559e-05
5.01968e-05
-9.52899e-06
-2.67713e-05
-6.74362e-07
5.84995e-06
5.26018e-06
3.87139e-07
-1.3795e-05
-3.25639e-05
-4.70354e-05
-6.27089e-05
-7.58234e-05
-8.11002e-05
-9.23834e-05
-9.44339e-05
-8.27109e-05
-7.44097e-05
-9.14493e-05
-9.06438e-05
-4.06909e-05
-7.29644e-06
-3.99533e-05
-8.00737e-05
-8.31891e-05
-6.23132e-05
-4.27452e-05
-3.15052e-05
-1.72899e-05
6.04466e-06
2.03464e-05
4.74565e-07
-3.55088e-05
-5.61707e-05
-4.09218e-05
-1.54227e-05
-2.77201e-05
-5.23623e-05
-3.2918e-05
2.7581e-05
7.29959e-05
5.06842e-05
-1.00416e-05
-2.75263e-05
-5.13835e-07
6.70953e-06
5.8594e-06
4.74615e-07
-1.37934e-05
-3.27806e-05
-4.67432e-05
-6.23182e-05
-7.53726e-05
-8.06368e-05
-9.18733e-05
-9.468e-05
-8.32093e-05
-7.48663e-05
-9.27892e-05
-9.2231e-05
-4.08722e-05
-6.37906e-06
-4.05954e-05
-8.1121e-05
-8.45938e-05
-6.39495e-05
-4.39026e-05
-3.19763e-05
-1.73533e-05
7.12332e-06
2.12384e-05
1.97659e-06
-3.46991e-05
-5.64882e-05
-4.15652e-05
-1.55897e-05
-2.8216e-05
-5.40193e-05
-3.51904e-05
2.65959e-05
7.40249e-05
5.14047e-05
-1.10666e-05
-2.86e-05
3.36277e-07
8.59584e-06
6.97111e-06
2.31352e-07
-1.37293e-05
-3.33379e-05
-4.64036e-05
-6.17509e-05
-7.46877e-05
-7.9796e-05
-9.15129e-05
-9.56861e-05
-8.44243e-05
-7.50773e-05
-9.50994e-05
-9.50847e-05
-4.08574e-05
-4.95088e-06
-4.15683e-05
-8.38112e-05
-8.63537e-05
-6.49566e-05
-4.51002e-05
-3.32146e-05
-1.83533e-05
7.87867e-06
2.16227e-05
3.53499e-06
-3.42364e-05
-5.7619e-05
-4.19563e-05
-1.61838e-05
-2.88004e-05
-5.67591e-05
-3.87635e-05
2.47871e-05
7.51527e-05
5.203e-05
-1.30705e-05
-2.98021e-05
1.74857e-06
1.20692e-05
8.31057e-06
7.98065e-07
-1.41493e-05
-3.4351e-05
-4.60209e-05
-6.10625e-05
-7.38884e-05
-7.92988e-05
-9.17038e-05
-9.76283e-05
-8.62931e-05
-7.58789e-05
-9.74242e-05
-9.96844e-05
-4.01216e-05
-1.81747e-06
-4.29406e-05
-8.81706e-05
-8.92222e-05
-6.54533e-05
-4.53324e-05
-3.50349e-05
-1.98467e-05
6.92833e-06
2.0669e-05
4.25577e-06
-3.45615e-05
-5.98622e-05
-4.25134e-05
-1.60324e-05
-2.88378e-05
-6.04042e-05
-4.46673e-05
2.061e-05
7.60899e-05
5.30426e-05
-1.64701e-05
-3.27597e-05
3.07293e-06
1.49516e-05
8.36691e-06
2.69465e-06
-1.57685e-05
-3.62695e-05
-4.60541e-05
-6.04573e-05
-7.32081e-05
-7.99315e-05
-9.33024e-05
-0.000101062
-8.89625e-05
-7.72753e-05
-9.98261e-05
-0.000101255
-3.70137e-05
2.45535e-06
-3.98107e-05
-9.31342e-05
-9.36401e-05
-6.48988e-05
-4.36909e-05
-3.46019e-05
-2.1443e-05
5.05524e-06
2.05581e-05
4.16857e-06
-3.59668e-05
-6.20579e-05
-4.38251e-05
-1.75183e-05
-2.81357e-05
-6.00411e-05
-5.2159e-05
1.04168e-05
7.32955e-05
5.61042e-05
-1.77482e-05
-3.85595e-05
7.37723e-07
1.53187e-05
5.94956e-06
9.00297e-07
-1.94673e-05
-3.91801e-05
-4.7225e-05
-6.07808e-05
-7.33341e-05
-8.18566e-05
-9.75185e-05
-0.000107833
-9.24281e-05
-7.96671e-05
-0.000100949
-0.00010164
-3.4777e-05
1.32066e-05
-3.25051e-05
-9.53393e-05
-9.82841e-05
-6.76072e-05
-4.31374e-05
-2.9038e-05
-1.94717e-05
2.66186e-06
1.88771e-05
2.41741e-06
-3.94299e-05
-6.51587e-05
-4.71717e-05
-2.15895e-05
-3.08148e-05
-5.85333e-05
-5.49897e-05
3.93554e-07
6.6429e-05
5.60786e-05
-1.38668e-05
-3.61278e-05
-9.31181e-07
1.15212e-05
-2.00787e-06
-5.95524e-06
-2.4748e-05
-4.28556e-05
-4.9229e-05
-6.22245e-05
-7.54659e-05
-8.6632e-05
-0.000105682
-0.000120112
-9.59081e-05
-8.17516e-05
-0.000102811
-0.000100863
-3.41928e-05
1.52801e-05
-2.47586e-05
-8.97631e-05
-9.7682e-05
-6.82892e-05
-4.5277e-05
-2.55141e-05
-1.07635e-05
2.57751e-06
1.26865e-05
-3.88107e-06
-4.60312e-05
-7.07489e-05
-5.20242e-05
-2.65839e-05
-3.68955e-05
-6.21613e-05
-5.87761e-05
-5.54946e-06
6.23232e-05
5.7413e-05
-1.07246e-05
-2.91633e-05
5.28634e-06
1.50041e-05
-1.00987e-05
-1.72359e-05
-2.91017e-05
-4.42978e-05
-4.94785e-05
-6.27826e-05
-7.81704e-05
-9.43692e-05
-0.000121439
-0.00014003
-0.000105282
-7.9091e-05
-0.000101364
-0.000102744
-3.28254e-05
1.73419e-05
-2.00496e-05
-8.30225e-05
-9.16167e-05
-6.35318e-05
-4.53411e-05
-2.7571e-05
-4.7254e-06
5.41494e-06
3.51284e-06
-1.73141e-05
-5.8242e-05
-8.05998e-05
-5.96304e-05
-3.21777e-05
-4.28192e-05
-7.05797e-05
-6.75216e-05
-1.55716e-05
5.8133e-05
6.15873e-05
-4.65977e-06
-2.64465e-05
8.26092e-06
2.12561e-05
-1.05849e-05
-2.63848e-05
-3.51816e-05
-4.3684e-05
-4.547e-05
-5.96943e-05
-7.59976e-05
-9.68588e-05
-0.000138895
-0.000155897
-0.000116678
-7.61757e-05
-9.60738e-05
-0.000103796
-3.71716e-05
1.61978e-05
-1.66868e-05
-7.87126e-05
-8.97122e-05
-6.08558e-05
-4.42823e-05
-3.56499e-05
-1.3813e-05
-2.96421e-06
-7.91818e-06
-2.90974e-05
-6.75311e-05
-9.06794e-05
-6.98324e-05
-4.02897e-05
-4.8341e-05
-7.754e-05
-8.07696e-05
-3.01188e-05
4.48937e-05
5.96413e-05
-1.35758e-06
-2.36225e-05
2.34207e-06
1.91773e-05
-1.26776e-05
-3.2528e-05
-3.70154e-05
-4.57922e-05
-5.24702e-05
-6.51935e-05
-7.62476e-05
-9.28902e-05
-0.000138926
-0.000157225
-0.000121365
-7.15689e-05
-8.41777e-05
-9.49474e-05
-4.12186e-05
7.74443e-06
-2.21845e-05
-8.19852e-05
-9.12251e-05
-5.85241e-05
-4.40356e-05
-4.1745e-05
-3.63002e-05
-2.85068e-05
-3.07223e-05
-4.30511e-05
-7.18489e-05
-9.49128e-05
-7.60158e-05
-4.59533e-05
-5.22131e-05
-8.24642e-05
-9.18357e-05
-4.84842e-05
2.41374e-05
5.09765e-05
-4.14963e-06
-2.63932e-05
-1.21393e-05
1.32857e-05
-1.75717e-05
-3.96033e-05
-4.44481e-05
-5.01307e-05
-5.9387e-05
-7.57757e-05
-8.796e-05
-9.78997e-05
-0.000134276
-0.00014988
-0.000117382
-7.13903e-05
-7.12762e-05
-7.71666e-05
-3.06748e-05
1.87939e-06
-3.28058e-05
-9.16205e-05
-9.39483e-05
-5.7503e-05
-4.14041e-05
-3.3805e-05
-4.31543e-05
-4.92094e-05
-5.49053e-05
-6.53753e-05
-7.70271e-05
-9.35023e-05
-7.99912e-05
-5.23174e-05
-4.95093e-05
-7.53719e-05
-8.90397e-05
-5.95165e-05
3.45259e-06
3.36707e-05
-1.11038e-05
-3.69868e-05
-2.12507e-05
2.72048e-07
-2.51627e-05
-5.26306e-05
-5.77927e-05
-5.55465e-05
-6.44282e-05
-8.36573e-05
-9.85999e-05
-0.000109005
-0.00014033
-0.00015113
-0.000113766
-6.97918e-05
-6.84709e-05
-6.42595e-05
-2.60428e-05
-2.70259e-06
-4.81047e-05
-0.000107901
-9.44634e-05
-4.63976e-05
-3.74513e-05
-3.04205e-05
-3.10687e-05
-4.32074e-05
-6.16442e-05
-8.02496e-05
-8.32859e-05
-9.25493e-05
-7.94161e-05
-5.45191e-05
-5.17803e-05
-7.34551e-05
-8.26922e-05
-5.85182e-05
-7.84204e-06
2.10335e-05
-1.57693e-05
-4.35083e-05
-3.14836e-05
-1.39804e-05
-3.27692e-05
-6.46344e-05
-7.40737e-05
-6.04053e-05
-6.2667e-05
-8.74611e-05
-0.000110045
-0.000122775
-0.000148321
-0.000162446
-0.000113602
-6.18995e-05
-5.91291e-05
-5.89043e-05
-3.33883e-05
-1.26183e-05
-6.40361e-05
-0.000127184
-0.000110189
-2.79528e-05
-1.67865e-05
-1.65828e-05
-6.80691e-06
-1.35678e-05
-4.40081e-05
-7.83103e-05
-9.20189e-05
-9.38868e-05
-7.8165e-05
-5.60539e-05
-5.80025e-05
-7.66832e-05
-8.08173e-05
-6.35614e-05
-2.40851e-05
6.97789e-06
-2.10661e-05
-4.89542e-05
-4.08251e-05
-2.06557e-05
-2.93545e-05
-7.26639e-05
-9.12661e-05
-6.81162e-05
-5.78153e-05
-8.17684e-05
-0.000116153
-0.000136151
-0.000158201
-0.000162858
-0.00012386
-6.37598e-05
-5.03426e-05
-5.7566e-05
-5.13052e-05
-2.94251e-05
-6.97534e-05
-0.000126891
-0.000112444
-1.33493e-05
9.86615e-06
6.18149e-06
1.50553e-05
1.45614e-05
-2.34824e-05
-8.03058e-05
-9.02083e-05
-9.15888e-05
-7.90914e-05
-6.16597e-05
-7.66442e-05
-0.000102276
-9.17806e-05
-6.62577e-05
-4.20352e-05
-1.81816e-05
-3.37093e-05
-4.83841e-05
-4.10271e-05
-1.82871e-05
-1.74836e-05
-6.01711e-05
-0.000102923
-8.82502e-05
-6.58686e-05
-7.42592e-05
-0.000110438
-0.000139167
-0.000158919
-0.000159794
-0.000133649
-8.12591e-05
-5.44828e-05
-5.65278e-05
-6.49123e-05
-4.7757e-05
-7.70621e-05
-0.000103635
-9.88626e-05
-2.30729e-06
3.07495e-06
1.70984e-05
3.89898e-05
4.70784e-05
-5.77708e-07
-6.68406e-05
-9.73322e-05
-9.73915e-05
-9.02028e-05
-8.4396e-05
-0.000101437
-0.000127487
-0.0001151
-8.09267e-05
-6.12129e-05
-4.67121e-05
-5.20721e-05
-5.43279e-05
-4.20007e-05
-1.96227e-05
-1.97043e-06
-3.32822e-05
-8.9794e-05
-0.000101894
-8.66798e-05
-8.69748e-05
-0.000113445
-0.000140007
-0.0001545
-0.000146418
-0.000119896
-8.72574e-05
-6.16529e-05
-5.86763e-05
-7.41482e-05
-9.64417e-05
-0.000110494
-0.0001145
-7.96819e-05
-2.05446e-05
-1.02181e-06
2.14955e-05
5.28529e-05
6.28486e-05
1.65981e-05
-4.17198e-05
-7.36328e-05
-7.55522e-05
-6.96126e-05
-5.77442e-05
-8.70516e-05
-0.000120183
-0.000110154
-7.87253e-05
-6.30112e-05
-5.19511e-05
-5.8966e-05
-6.21564e-05
-4.67575e-05
-2.5924e-05
-7.29236e-06
-2.98465e-05
-7.89684e-05
-9.95301e-05
-9.19979e-05
-8.90761e-05
-0.000114874
-0.000147203
-0.000156311
-0.000144014
-9.43301e-05
-6.48097e-05
-5.28619e-05
-5.7628e-05
-8.14026e-05
-0.000117288
-0.000144891
-0.000143662
-9.64206e-05
-3.81751e-05
-6.37734e-06
3.1273e-05
7.51269e-05
8.46625e-05
3.40092e-05
-1.34681e-05
-3.22235e-05
-3.3482e-05
-1.96773e-05
-9.0041e-06
-3.25905e-05
-7.91814e-05
-8.23509e-05
-5.53068e-05
-3.28881e-05
-2.45492e-05
-4.28228e-05
-5.82641e-05
-4.80854e-05
-3.83559e-05
-2.7722e-05
-3.26865e-05
-9.03569e-05
-9.53962e-05
-9.21244e-05
-8.73001e-05
-0.000112196
-0.000155008
-0.000166548
-0.000155687
-8.60166e-05
-4.8555e-05
-3.30645e-05
-5.99852e-05
-9.92208e-05
-0.000129645
-0.000143892
-0.000143782
-0.000100233
-3.84915e-05
-1.61861e-05
4.20986e-06
4.82128e-05
5.68205e-05
2.98763e-05
2.41996e-06
1.53742e-06
9.08818e-06
2.52915e-05
3.73802e-05
1.20043e-05
-4.97781e-05
-6.7438e-05
-3.49009e-05
-2.55895e-06
-1.85668e-06
-3.2804e-05
-5.66506e-05
-4.98367e-05
-4.69037e-05
-4.54054e-05
-4.29151e-05
-7.30259e-05
-9.54888e-05
-8.95131e-05
-7.72664e-05
-0.000103824
-0.000159787
-0.000173605
-0.000133592
-0.000128302
-6.9463e-05
-4.25556e-05
-5.76176e-05
-0.000102184
-0.000138754
-0.00013749
-0.00012101
-8.94453e-05
-3.53525e-05
-3.00509e-06
1.06455e-05
4.97513e-05
6.35646e-05
4.13487e-05
1.50116e-05
3.06606e-07
-1.13887e-06
4.7839e-06
4.09201e-05
3.84038e-05
-1.06915e-05
-3.33743e-05
-1.12404e-05
8.62185e-06
1.61777e-06
-2.926e-05
-6.10707e-05
-5.60811e-05
-5.46258e-05
-5.19719e-05
-4.12233e-05
-4.50675e-05
-7.61724e-05
-0.00010596
-8.03932e-05
-8.45445e-05
-0.00010008
-0.000131453
-9.29988e-05
-6.97046e-05
-4.06469e-05
-3.22111e-05
-4.73267e-05
-7.99685e-05
-0.000124704
-0.000120562
-0.000100741
-7.63043e-05
-4.27364e-05
-2.1548e-05
-1.35024e-05
1.20043e-05
3.71625e-05
4.20667e-05
3.37525e-05
1.91244e-05
1.32355e-05
6.70232e-06
2.06139e-05
2.53455e-05
-1.6773e-06
-2.39972e-05
-1.72755e-05
-3.3059e-07
3.14165e-06
-2.27448e-05
-4.79259e-05
-5.35538e-05
-6.01924e-05
-5.84467e-05
-5.57688e-05
-4.79253e-05
-6.78043e-05
-8.85069e-05
-8.79514e-05
-8.50435e-05
-8.41858e-05
-8.5836e-05
-3.8199e-05
-5.1619e-05
-4.9765e-05
-5.32996e-05
-6.50837e-05
-8.08528e-05
-0.000102773
-0.000106708
-9.25626e-05
-7.19299e-05
-4.75314e-05
-3.5902e-05
-3.32429e-05
-9.26717e-06
1.62291e-05
2.53344e-05
-7.2552e-06
-3.6385e-05
-4.45325e-05
-4.09287e-05
-2.95045e-05
-2.09868e-05
-3.02785e-05
-4.98297e-05
-5.07145e-05
-4.55341e-05
-3.86253e-05
-4.14224e-05
-4.89068e-05
-4.71155e-05
-4.59001e-05
-7.17991e-05
-9.5701e-05
-0.000103082
-0.000112221
-0.00011473
-0.000105145
-8.94573e-05
-6.32987e-05
-4.05393e-05
-2.85589e-05
-4.26244e-05
-4.32954e-05
-4.15597e-05
-5.37641e-05
-6.68126e-05
-7.60946e-05
-8.35422e-05
-8.10943e-05
-7.2949e-05
-6.03249e-05
-4.94895e-05
-4.12994e-05
-2.20873e-05
-4.07247e-06
-3.36023e-06
-1.58609e-05
-3.24573e-05
-4.3081e-05
-4.09694e-05
-3.72136e-05
-3.80029e-05
-4.48717e-05
-6.33128e-05
-7.14517e-05
-6.06459e-05
-3.11146e-05
-3.63502e-05
-4.32493e-05
-5.96118e-05
-5.60924e-05
-8.67077e-05
-0.000113482
-0.000127731
-0.000129965
-0.000120816
-9.76782e-05
-7.39303e-05
-5.1025e-05
-3.4544e-05
-4.54342e-05
-5.7068e-05
-6.30194e-05
-5.0487e-05
-5.13497e-05
-6.15301e-05
-6.52322e-05
-6.00507e-05
-5.53976e-05
-5.47164e-05
-4.22799e-05
-3.11356e-05
-2.33711e-05
-1.3865e-05
-6.64528e-06
-6.83695e-06
-5.76318e-06
-4.98299e-06
-5.30915e-06
1.6907e-07
-1.46638e-05
-3.39657e-05
-4.29481e-05
-5.83869e-05
-7.61446e-05
-7.74624e-05
-7.63827e-05
-5.51699e-05
-4.43139e-05
-4.24315e-05
-3.04769e-05
-2.01413e-05
-6.3391e-05
-8.67374e-05
-0.000100841
-9.93596e-05
-7.87606e-05
-5.92723e-05
-5.19953e-05
-4.83546e-05
-7.35995e-05
-7.88654e-05
-8.14163e-05
-6.54834e-05
-5.44094e-05
-4.93747e-05
-4.24782e-05
-3.94909e-05
-3.41595e-05
-3.84749e-05
-3.8072e-05
-3.3448e-05
-2.8196e-05
-1.801e-05
-7.65431e-06
-1.43446e-06
7.8674e-06
8.03923e-06
5.61844e-06
1.40328e-05
9.11991e-07
-2.05564e-05
-2.73381e-05
-3.5891e-05
-5.05397e-05
-5.53342e-05
-5.35675e-05
-4.68335e-05
-3.50868e-05
-3.59969e-05
-3.59518e-05
-3.90636e-05
-6.892e-05
-0.000103765
-0.000111032
-0.000106754
-8.5098e-05
-6.27969e-05
-6.39743e-05
-7.33917e-05
-9.7505e-05
-9.72435e-05
-8.69219e-05
-0.000113893
-0.000131399
-5.87397e-05
3.33724e-05
5.08866e-05
2.59586e-07
-3.16236e-05
-4.17749e-05
-5.56997e-05
-7.50681e-05
-9.08235e-05
-8.06828e-05
-4.33771e-05
-1.06359e-05
-2.87004e-05
-2.64281e-05
6.39402e-06
4.40952e-05
4.85247e-05
2.29075e-05
-2.63654e-06
-3.09165e-06
3.3475e-05
4.54199e-05
-1.14701e-05
-5.47368e-05
-3.73671e-05
-2.80398e-05
-4.48933e-05
-6.16448e-05
-7.3375e-05
-6.17219e-05
-3.9169e-05
-3.62701e-05
-3.89079e-05
-4.46886e-05
-6.94686e-05
-9.72732e-05
-9.74044e-05
-8.64216e-05
-0.000113517
-0.000132094
-5.91501e-05
3.48782e-05
5.30374e-05
5.63183e-07
-3.18253e-05
-4.21052e-05
-5.59944e-05
-7.55042e-05
-9.193e-05
-8.19104e-05
-4.37041e-05
-1.01598e-05
-2.77196e-05
-2.61794e-05
6.34586e-06
4.45935e-05
4.93315e-05
2.35518e-05
-2.20436e-06
-3.16847e-06
3.3537e-05
4.62204e-05
-1.08857e-05
-5.4888e-05
-3.72605e-05
-2.74296e-05
-4.46097e-05
-6.19035e-05
-7.39402e-05
-6.20721e-05
-3.90057e-05
-3.56147e-05
-3.81454e-05
-4.33085e-05
-6.83602e-05
-9.78848e-05
-9.83697e-05
-8.5877e-05
-0.000113362
-0.000134088
-6.0125e-05
3.69511e-05
5.44335e-05
-3.91539e-07
-3.34787e-05
-4.38485e-05
-5.77396e-05
-7.73982e-05
-9.48362e-05
-8.44332e-05
-4.37397e-05
-8.3511e-06
-2.66335e-05
-2.65973e-05
5.98743e-06
4.53082e-05
5.02235e-05
2.3732e-05
-2.93373e-06
-4.46981e-06
3.32484e-05
4.71434e-05
-1.06049e-05
-5.58631e-05
-3.77362e-05
-2.69189e-05
-4.48834e-05
-6.33469e-05
-7.51605e-05
-6.23412e-05
-3.81963e-05
-3.41043e-05
-3.6504e-05
-4.14591e-05
-6.72486e-05
-9.98299e-05
-0.000100426
-8.54942e-05
-0.000113782
-0.000137326
-6.1067e-05
4.04813e-05
5.48855e-05
-3.91945e-06
-3.77173e-05
-4.72015e-05
-6.05815e-05
-8.06792e-05
-9.9966e-05
-8.87183e-05
-4.37511e-05
-5.46304e-06
-2.48686e-05
-2.83516e-05
4.72756e-06
4.61778e-05
5.16088e-05
2.38184e-05
-4.90605e-06
-7.56712e-06
3.20114e-05
4.78132e-05
-1.09201e-05
-5.7341e-05
-3.87293e-05
-2.69913e-05
-4.61838e-05
-6.54278e-05
-7.6683e-05
-6.29186e-05
-3.62408e-05
-3.14468e-05
-3.38395e-05
-3.88266e-05
-6.64615e-05
-0.000102706
-0.000103263
-8.61004e-05
-0.000115218
-0.000140358
-6.08275e-05
4.67273e-05
5.74295e-05
-1.01359e-05
-4.57905e-05
-5.26053e-05
-6.41058e-05
-8.37477e-05
-0.000106584
-9.44778e-05
-4.40422e-05
-2.98517e-06
-2.05755e-05
-3.09928e-05
9.2689e-07
4.5529e-05
5.263e-05
2.4266e-05
-6.65358e-06
-1.15264e-05
3.00157e-05
4.75173e-05
-1.23773e-05
-5.93897e-05
-4.00261e-05
-2.70945e-05
-4.78267e-05
-6.7592e-05
-7.71054e-05
-6.34925e-05
-3.7334e-05
-3.03592e-05
-3.05555e-05
-3.54953e-05
-6.60921e-05
-0.000106273
-0.00010581
-8.64201e-05
-0.000117046
-0.000142888
-5.5974e-05
5.66986e-05
6.35453e-05
-1.69885e-05
-5.80576e-05
-5.84067e-05
-6.3819e-05
-8.27162e-05
-0.000111465
-0.000103538
-5.14658e-05
-1.39199e-06
-1.31561e-05
-3.19442e-05
-5.80386e-06
4.1326e-05
5.16603e-05
2.40287e-05
-8.99836e-06
-1.60479e-05
2.81673e-05
4.68051e-05
-1.491e-05
-6.23564e-05
-4.16865e-05
-2.69341e-05
-4.74396e-05
-6.85569e-05
-7.62357e-05
-6.2272e-05
-3.96083e-05
-3.52257e-05
-3.05869e-05
-3.22975e-05
-6.59902e-05
-0.000109144
-0.00010811
-8.73546e-05
-0.000117128
-0.000142209
-5.53266e-05
6.0379e-05
6.80732e-05
-2.01583e-05
-7.32367e-05
-6.89299e-05
-6.14969e-05
-7.74115e-05
-0.000108836
-0.000112335
-6.69126e-05
-9.77144e-06
-9.70709e-06
-3.21568e-05
-1.45308e-05
3.20078e-05
4.66797e-05
2.1676e-05
-1.11597e-05
-1.99689e-05
2.49861e-05
4.54992e-05
-1.68719e-05
-6.62153e-05
-4.5652e-05
-2.63543e-05
-4.43194e-05
-6.54852e-05
-7.28575e-05
-5.91451e-05
-4.05649e-05
-4.26686e-05
-3.76687e-05
-3.37865e-05
-6.66296e-05
-0.000113251
-0.00010889
-8.62009e-05
-0.000117129
-0.000139229
-6.48483e-05
4.75795e-05
5.712e-05
-2.33874e-05
-8.45007e-05
-8.62676e-05
-6.4743e-05
-7.05273e-05