/*--------------------------------*- C++ -*----------------------------------*\
| =========                 |                                                 |
| \\      /  F ield         | OpenFOAM: The Open Source CFD Toolbox           |
|  \\    /   O peration     | Version:  2.3.0                                 |
|   \\  /    A nd           | Web:      www.OpenFOAM.org                      |
|    \\/     M anipulation  |                                                 |
\*---------------------------------------------------------------------------*/
FoamFile
{
    version     2.0;
    format      ascii;
    class       surfaceScalarField;
    location    "200";
    object      phi;
}
// * * * * * * * * * * * * * * * * * * * * * * * * * * * * * * * * * * * * * //

dimensions      [0 3 -1 0 0 0 0];

internalField   nonuniform List<scalar> 
175300
(
5.90214e-06
-1.30473e-06
1.35943e-06
6.37772e-06
-1.02546e-06
1.43334e-06
6.82236e-06
-6.5015e-07
1.21631e-06
7.17112e-06
-4.68159e-07
9.37672e-07
7.61791e-06
-5.08893e-07
5.3788e-07
8.21763e-06
-4.98002e-07
3.48736e-07
8.82243e-06
-4.17427e-07
6.95426e-07
9.11931e-06
-5.46714e-07
1.11929e-06
9.08484e-06
-5.43569e-07
7.99881e-07
8.83674e-06
-5.76661e-07
1.03355e-07
8.29306e-06
-4.50732e-07
-7.67641e-08
7.72116e-06
-7.38248e-07
4.25986e-07
7.47835e-06
-1.58176e-06
1.35287e-06
7.47478e-06
-1.79167e-06
1.75757e-06
7.35347e-06
-1.07948e-06
1.31636e-06
6.9775e-06
-1.83533e-07
5.54665e-07
6.41756e-06
2.18309e-07
7.39779e-08
6.01768e-06
1.7623e-07
-1.32613e-07
5.97285e-06
1.46494e-07
-3.85131e-07
6.10554e-06
4.01701e-07
-6.53125e-07
6.15077e-06
7.85679e-07
-6.89922e-07
6.06025e-06
1.02124e-06
-3.84574e-07
6.07078e-06
1.02277e-06
-2.65578e-08
6.36753e-06
5.78872e-07
2.12347e-07
6.89905e-06
1.7997e-07
2.40049e-07
7.36446e-06
2.09845e-07
1.26407e-07
7.29812e-06
6.7869e-07
3.62658e-08
6.65383e-06
8.39716e-07
-1.39001e-07
6.00355e-06
1.52743e-07
-3.3455e-07
5.47465e-06
-1.24064e-06
-8.56761e-08
5.07481e-06
-2.54759e-06
5.57005e-07
5.04512e-06
-3.38277e-06
1.14709e-06
5.28585e-06
-2.98524e-06
1.15987e-06
5.14616e-06
-8.27723e-07
1.9852e-07
4.83834e-06
5.63395e-07
-6.31079e-07
4.76048e-06
8.55864e-07
-9.75753e-07
4.88004e-06
6.05154e-07
-8.5672e-07
5.00164e-06
3.0722e-07
-5.90967e-07
5.18195e-06
-2.55749e-07
-5.83387e-08
-9.85394e-07
7.30438e-07
1.90031e-05
-3.46339e-06
1.88917e-06
1.99843e-05
-2.64701e-06
1.87478e-06
2.11533e-05
-1.79154e-06
1.45681e-06
2.23832e-05
-1.6199e-06
9.22861e-07
2.39453e-05
-2.06793e-06
3.05954e-07
2.59262e-05
-2.32951e-06
6.07267e-07
2.78844e-05
-2.56053e-06
2.62215e-06
2.91905e-05
-3.16848e-06
4.25917e-06
2.98704e-05
-3.1729e-06
3.53189e-06
2.9908e-05
-2.76652e-06
1.40979e-06
2.89709e-05
-1.63153e-06
-5.97215e-08
2.74599e-05
-1.85142e-06
3.17641e-07
2.60494e-05
-3.55445e-06
1.95673e-06
2.49702e-05
-3.7037e-06
2.9471e-06
2.3949e-05
-1.99453e-06
2.35235e-06
2.27513e-05
1.47033e-07
1.16416e-06
2.12948e-05
1.14605e-06
6.29708e-07
2.00384e-05
1.24151e-06
3.64653e-07
1.95208e-05
1.40963e-06
-3.72081e-07
1.97061e-05
1.90547e-06
-1.06003e-06
2.00441e-05
2.75084e-06
-1.01106e-06
2.03075e-05
3.38438e-06
-3.26167e-07
2.08205e-05
3.1163e-06
4.59825e-07
2.16766e-05
2.00826e-06
9.98548e-07
2.27397e-05
1.13362e-06
1.07185e-06
2.38251e-05
9.25018e-07
8.13157e-07
2.43684e-05
1.31315e-06
5.86817e-07
2.40509e-05
8.34431e-07
1.62587e-07
2.29689e-05
-9.95785e-07
-4.63337e-07
2.09487e-05
-3.81165e-06
-1.01278e-07
1.85379e-05
-6.43436e-06
8.12164e-07
1.68693e-05
-8.12389e-06
1.28979e-06
1.61131e-05
-6.61883e-06
7.30552e-07
1.54316e-05
-1.6059e-06
-4.30137e-07
1.50366e-05
1.75765e-06
-1.66417e-06
1.52545e-05
2.13482e-06
-1.76836e-06
1.59438e-05
1.3107e-06
-1.24616e-06
1.67652e-05
3.68882e-07
-6.7904e-07
1.75693e-05
-1.05972e-06
3.76398e-08
-2.84392e-06
1.11732e-06
3.2671e-05
-5.24725e-06
8.72072e-07
3.37854e-05
-3.9296e-06
6.56158e-07
3.53698e-05
-2.40129e-06
1.26552e-07
3.71707e-05
-2.40939e-06
-6.43148e-07
3.95461e-05
-3.13258e-06
-2.17312e-06
4.25884e-05
-4.18163e-06
-1.98501e-06
4.56108e-05
-5.21021e-06
1.94373e-06
4.80191e-05
-7.47635e-06
6.71545e-06
5.03597e-05
-8.8694e-06
7.83575e-06
5.25021e-05
-8.29228e-06
5.30424e-06
5.26777e-05
-4.38729e-06
1.58861e-06
5.04152e-05
-2.01105e-06
-3.01531e-07
4.73269e-05
-3.46177e-06
6.45204e-07
4.48884e-05
-3.93288e-06
2.65085e-06
4.31078e-05
-2.03244e-06
2.84504e-06
4.1559e-05
1.0807e-06
1.52079e-06
3.9611e-05
2.51761e-06
1.00531e-06
3.71901e-05
2.67291e-06
1.65297e-06
3.53762e-05
3.16525e-06
1.36941e-06
3.51284e-05
4.24088e-06
-2.78011e-07
3.59321e-05
5.63485e-06
-7.89207e-07
3.70269e-05
7.00537e-06
-2.42088e-07
3.84451e-05
6.28346e-06
6.31455e-07
3.98916e-05
4.44536e-06
1.48247e-06
4.1018e-05
3.66695e-06
1.89932e-06
4.24041e-05
3.32963e-06
1.87458e-06
4.44454e-05
2.5647e-06
2.03428e-06
4.65533e-05
-8.49261e-08
1.53869e-06
4.70262e-05
-3.76907e-06
3.92835e-07
4.38972e-05
-6.61765e-06
7.40977e-08
3.79077e-05
-9.09487e-06
9.78926e-07
3.23059e-05
-1.15614e-05
1.23387e-06
2.90445e-05
-9.61345e-06
7.38804e-08
2.73107e-05
-2.12174e-06
-1.33396e-06
2.67109e-05
3.44259e-06
-2.91991e-06
2.71111e-05
3.79267e-06
-2.78715e-06
2.82553e-05
2.24958e-06
-1.77372e-06
2.97634e-05
7.66841e-07
-9.64109e-07
3.11434e-05
-1.43051e-06
-2.61442e-07
-4.11737e-06
4.25468e-07
4.61326e-05
-5.36282e-06
-4.84661e-07
4.69814e-05
-4.01913e-06
-1.33819e-06
4.85208e-05
-1.88887e-06
-2.09041e-06
5.01987e-05
-1.16602e-06
-3.32598e-06
5.25769e-05
-2.00428e-06
-6.24598e-06
5.61706e-05
-3.53744e-06
-8.00954e-06
5.95975e-05
-5.83835e-06
-3.44153e-06
6.17035e-05
-1.01402e-05
5.31111e-06
6.44079e-05
-1.51393e-05
1.04316e-05
6.94803e-05
-1.78233e-05
1.02652e-05
7.33784e-05
-1.15702e-05
6.229e-06
7.19854e-05
-2.82764e-06
1.11165e-06
6.72803e-05
-6.3372e-07
-1.11248e-06
6.36166e-05
-2.56779e-07
1.15859e-07
6.17616e-05
9.79615e-08
2.38877e-06
6.07312e-05
3.33573e-06
1.65085e-06
5.94738e-05
5.01288e-06
4.84325e-08
5.68479e-05
4.69172e-06
1.29655e-06
5.34593e-05
4.85505e-06
3.43652e-06
5.15824e-05
6.12682e-06
2.96568e-06
5.19201e-05
8.79425e-06
1.36174e-06
5.3549e-05
1.22184e-05
7.00203e-07
5.61974e-05
1.14137e-05
2.71935e-07
5.93805e-05
6.9022e-06
7.73278e-07
6.17481e-05
5.32413e-06
1.69796e-06
6.31633e-05
6.59508e-06
2.29572e-06
6.5051e-05
6.48106e-06
3.75193e-06
6.86895e-05
1.50396e-06
4.79718e-06
7.26655e-05
-5.98086e-06
3.39917e-06
7.21326e-05
-9.76154e-06
1.71737e-06
6.43694e-05
-1.03202e-05
2.17625e-06
5.34953e-05
-1.20424e-05
2.26917e-06
4.54588e-05
-1.05575e-05
-5.64222e-09
4.12676e-05
-1.82606e-06
-2.49866e-06
3.98284e-05
5.93617e-06
-4.93196e-06
4.00118e-05
6.07562e-06
-4.80973e-06
4.11706e-05
3.23695e-06
-3.08241e-06
4.29973e-05
1.34058e-06
-1.38834e-06
4.48453e-05
-7.86088e-07
-2.62744e-07
-3.63989e-06
-1.80288e-08
6.0009e-05
-3.32367e-06
-2.80518e-07
6.0248e-05
-2.01503e-06
-2.91824e-06
6.16343e-05
8.50919e-07
-4.93426e-06
6.30062e-05
2.72149e-06
-6.30862e-06
6.44349e-05
2.2497e-06
-1.01083e-05
6.77077e-05
2.92435e-07
-1.47585e-05
7.17405e-05
-2.7469e-06
-1.1907e-05
7.32745e-05
-8.18529e-06
-1.03082e-06
7.36241e-05
-1.67287e-05
8.37985e-06
7.8557e-05
-2.58478e-05
1.17251e-05
8.71404e-05
-2.35245e-05
1.10675e-05
9.04353e-05
-9.12695e-06
5.90757e-06
8.58499e-05
8.75852e-07
-7.49225e-07
8.02494e-05
5.33908e-06
-3.24765e-06
7.78764e-05
6.30817e-06
-8.56274e-07
7.75435e-05
8.68049e-06
1.67629e-06
7.77564e-05
9.80171e-06
-1.47893e-07
7.66455e-05
8.88335e-06
-1.40464e-06
7.32106e-05
8.22485e-06
1.19099e-06
6.9492e-05
7.83446e-06
4.42098e-06
6.79143e-05
1.02842e-05
5.59923e-06
6.88859e-05
1.64774e-05
5.42459e-06
7.18678e-05
1.88307e-05
2.49388e-06
7.61404e-05
1.22554e-05
-1.17803e-07
8.08304e-05
5.20884e-06
7.58377e-09
8.51026e-05
4.93354e-06
4.97972e-07
8.82089e-05
7.63822e-06
2.76255e-06
9.10346e-05
4.48122e-06
7.04282e-06
9.54905e-05
-4.7778e-06
8.46381e-06
9.91133e-05
-1.11434e-05
6.72975e-06
9.46339e-05
-9.21078e-06
5.82279e-06
8.09082e-05
-8.17454e-06
5.50239e-06
6.67401e-05
-7.00324e-06
1.68082e-06
5.82285e-05
4.0291e-07
-3.20811e-06
5.49913e-05
9.54602e-06
-7.47177e-06
5.45256e-05
9.56132e-06
-7.87006e-06
5.53243e-05
4.44752e-06
-5.63505e-06
5.70328e-05
9.49039e-07
-2.65183e-06
5.90942e-05
-6.44558e-07
5.46711e-08
-2.11693e-06
1.27996e-06
7.56943e-05
-9.36909e-07
2.76468e-06
7.48321e-05
1.34016e-06
-1.98771e-06
7.57489e-05
5.37053e-06
-6.59701e-06
7.76248e-05
8.05076e-06
-8.45582e-06
7.85563e-05
8.56543e-06
-1.19241e-05
8.02915e-05
6.71745e-06
-1.89768e-05
8.44024e-05
2.89863e-06
-2.02357e-05
8.69936e-05
-2.4985e-06
-1.05638e-05
8.55024e-05
-1.12756e-05
1.0478e-06
8.60907e-05
-2.51577e-05
6.99751e-06
9.48516e-05
-3.31536e-05
1.08035e-05
0.000104653
-2.157e-05
1.03109e-05
0.000104846
-2.99726e-06
2.76471e-06
9.82351e-05
9.52651e-06
-5.42715e-06
9.36979e-05
1.5283e-05
-7.19988e-06
9.26403e-05
1.78886e-05
-2.63915e-06
9.34291e-05
1.80747e-05
-3.62492e-07
9.45164e-05
1.57374e-05
-2.4367e-06
9.34635e-05
1.45494e-05
-3.34099e-06
9.00353e-05
1.32066e-05
-1.25617e-06
8.64864e-05
1.21206e-05
4.21648e-06
8.53023e-05
1.77883e-05
9.44664e-06
8.78934e-05
2.27633e-05
9.63627e-06
9.2941e-05
1.84047e-05
4.72844e-06
9.80518e-05
8.25566e-06
9.63554e-07
0.000103425
2.30474e-06
-1.39718e-06
0.000109429
2.61772e-06
-5.09893e-07
0.000114343
2.15892e-06
3.64202e-06
0.000118254
-4.99419e-06
8.5272e-06
0.000123691
-1.35647e-05
1.07863e-05
0.000125453
-1.16326e-05
1.16342e-05
0.000113757
-1.9969e-06
1.18897e-05
9.37254e-05
4.59793e-06
7.17705e-06
7.87693e-05
8.80235e-06
-1.77514e-06
7.29181e-05
1.48899e-05
-9.63546e-06
7.21161e-05
1.40459e-05
-1.14462e-05
7.27031e-05
7.20338e-06
-9.12479e-06
7.38704e-05
7.39474e-07
-5.17352e-06
7.55591e-05
-2.27557e-06
-3.41641e-07
-2.10089e-06
3.54965e-06
9.46792e-05
-1.73333e-07
8.02237e-06
9.23102e-05
3.42146e-06
2.60572e-06
9.14404e-05
1.03785e-05
-5.7523e-06
9.29219e-05
1.47058e-05
-1.03538e-05
9.48241e-05
1.44715e-05
-1.19194e-05
9.61487e-05
1.27926e-05
-1.86034e-05
9.92785e-05
8.98111e-06
-2.44285e-05
0.000103096
4.09781e-06
-1.93296e-05
0.000102682
-1.54394e-06
-8.71727e-06
9.91116e-05
-1.43975e-05
-1.58175e-06
0.000101752
-3.17414e-05
3.81096e-06
0.00011348
-3.24319e-05
8.64542e-06
0.000122291
-1.26832e-05
5.55663e-06
0.000119907
8.93133e-06
-5.32307e-06
0.000113142
2.37577e-05
-1.42667e-05
0.000109096
3.04686e-05
-1.28095e-05
0.000108436
2.92907e-05
-6.7566e-06
0.000110004
2.45772e-05
-5.07591e-06
0.000111561
2.22263e-05
-6.77427e-06
0.000111016
2.04115e-05
-8.21088e-06
0.000108401
1.81653e-05
-4.81858e-06
0.000105945
2.07428e-05
4.98608e-06
0.000107185
2.35513e-05
1.2953e-05
0.00011265
1.98747e-05
1.2934e-05
0.000118817
1.16908e-05
7.91695e-06
0.000123783
3.05312e-06
2.30132e-06
0.000129265
-2.22818e-06
-5.80746e-07
0.000135399
-3.74891e-06
1.29554e-06
0.000139496
-6.86953e-06
4.0743e-06
0.000143405
-1.5452e-05
6.35013e-06
0.000149665
-1.98472e-05
1.06439e-05
0.000147355
-6.98341e-06
1.67904e-05
0.000128345
1.41576e-05
1.60194e-05
0.000106238
2.4722e-05
4.06261e-06
9.53061e-05
2.5439e-05
-9.05587e-06
9.43403e-05
1.94701e-05
-1.48478e-05
9.63984e-05
1.08464e-05
-1.36429e-05
9.77121e-05
3.10039e-06
-8.89416e-06
9.79746e-05
-1.65606e-06
-2.07423e-06
-1.7687e-06
5.11595e-06
0.00012027
3.33185e-06
1.30689e-05
0.00011445
3.32911e-06
1.17872e-05
0.000111055
1.16167e-05
7.6078e-07
0.00011027
2.11605e-05
-1.07658e-05
0.000111119
2.09602e-05
-1.39249e-05
0.000112681
1.66749e-05
-1.64564e-05
0.00011591
1.32482e-05
-2.28699e-05
0.000120788
9.92321e-06
-2.31961e-05
0.000122874
6.92904e-06
-1.50269e-05
0.000118449
-5.6836e-07
-7.19379e-06
0.00011304
-1.80552e-05
-1.42446e-06
0.000118179
-3.11617e-05
3.58527e-06
0.000132287
-2.22519e-05
3.91324e-06
0.000140741
2.32082e-06
-6.19217e-06
0.000138378
2.76983e-05
-2.04978e-05
0.000132009
4.17989e-05
-2.57029e-05
0.000127635
4.1414e-05
-2.03577e-05
0.000126832
3.43513e-05
-1.44119e-05
0.000128164
2.98542e-05
-1.2706e-05
0.000129499
2.68743e-05
-1.54589e-05
0.000129677
2.42039e-05
-1.62655e-05
0.000128972
2.59489e-05
-6.81195e-06
0.000130209
2.65017e-05
6.53945e-06
0.000135518
1.8976e-05
1.48514e-05
0.000142716
1.11441e-05
1.52837e-05
0.000148055
5.52529e-06
8.76231e-06
0.000151511
-1.40261e-06
1.98346e-06
0.000156023
-7.48923e-06
2.01758e-06
0.000161349
-1.06377e-05
4.2779e-06
0.000164607
-1.58988e-05
3.58952e-06
0.000168023
-2.34707e-05
4.73935e-06
0.000170682
-1.6848e-05
1.35931e-05
0.000161789
1.0585e-05
2.08859e-05
0.000141957
3.29143e-05
1.3721e-05
0.000126438
3.50459e-05
-2.29462e-06
0.000122318
2.41715e-05
-1.37615e-05
0.000125218
1.32073e-05
-1.72279e-05
0.000128897
5.95474e-06
-1.4243e-05
0.000129741
2.26181e-06
-6.06151e-06
2.78438e-06
5.10212e-06
0.000156993
9.03842e-06
1.56049e-05
0.000145976
6.52079e-06
2.02589e-05
0.00013758
1.14517e-05
1.14045e-05
0.000133687
2.39841e-05
-4.41129e-06
0.000131942
2.61837e-05
-1.44701e-05
0.000131224
2.03829e-05
-1.77552e-05
0.000133201
1.75052e-05
-2.15874e-05
0.000138448
1.659e-05
-2.23085e-05
0.000143095
1.40312e-05
-1.61942e-05
0.000141403
9.48308e-06
-9.30776e-06
0.000133056
-1.1709e-06
-3.32054e-06
0.000128374
-1.71438e-05
2.80012e-06
0.000137703
-2.3186e-05
6.12797e-06
0.00015452
-7.26246e-06
-7.075e-07
0.000163777
2.05584e-05
-1.77248e-05
0.000161701
4.34394e-05
-3.13493e-05
0.0001545
4.83177e-05
-3.26883e-05
0.000149032
4.27827e-05
-2.73461e-05
0.00014762
3.8512e-05
-2.18648e-05
0.000148403
3.45588e-05
-2.18815e-05
0.000149708
2.9127e-05
-2.59573e-05
0.000151201
2.75075e-05
-2.14414e-05
0.000154083
2.56532e-05
-7.28096e-06
0.000159811
1.64419e-05
6.13403e-06
0.000167254
7.26582e-06
1.43379e-05
0.000172787
5.66241e-06
1.27386e-05
0.000174388
3.55534e-06
3.89211e-06
0.000175373
-3.53956e-06
4.41962e-07
0.000180427
-1.06436e-05
3.39205e-06
0.000187777
-1.74003e-05
4.83534e-06
0.000191888
-2.41782e-05
4.24518e-06
0.00019206
-2.12715e-05
9.76927e-06
0.00018736
1.84797e-06
2.08104e-05
0.000176652
2.73557e-05
2.12647e-05
0.000164714
3.43506e-05
8.74362e-06
0.00015716
2.59761e-05
-4.86846e-06
0.000156316
1.50653e-05
-1.32597e-05
0.000160724
7.2078e-06
-1.6683e-05
0.000165403
3.99194e-06
-1.19188e-05
6.38191e-06
1.51003e-06
0.000199989
4.6225e-06
1.24842e-05
0.000188122
9.77028e-06
2.3812e-05
0.000173114
1.54684e-05
2.10985e-05
0.000164339
2.56421e-05
6.52795e-06
0.000160217
2.8629e-05
-9.09217e-06
0.000156343
2.3774e-05
-1.8101e-05
0.000154622
2.18198e-05
-2.23531e-05
0.000157767
2.36228e-05
-2.15226e-05
0.000163125
2.18971e-05
-1.56745e-05
0.000164931
1.80978e-05
-1.11102e-05
0.000159463
1.43296e-05
-7.80909e-06
0.000149874
2.54618e-06
1.97095e-08
0.000148555
-1.48438e-05
1.06848e-05
0.000162913
-1.91094e-05
1.49971e-05
0.00018263
2.18457e-06
2.00411e-06
0.000192557
3.07681e-05
-1.97386e-05
0.000188647
4.56848e-05
-3.2966e-05
0.000178655
4.72178e-05
-3.58336e-05
0.000172418
4.64304e-05
-3.2072e-05
0.000171523
4.34089e-05
-2.88411e-05
0.000172537
3.55874e-05
-3.15995e-05
0.000173785
2.79677e-05
-3.1003e-05
0.000176145
2.113e-05
-2.06208e-05
0.000180989
9.85415e-06
-6.21605e-06
0.000188441
2.12659e-06
5.06894e-06
0.000195246
3.26932e-06
9.57073e-06
0.000197072
8.05614e-06
3.48977e-06
0.000195024
5.58557e-06
-2.35252e-06
0.000196719
-4.28348e-06
6.92831e-07
0.000207138
-1.67967e-05
4.82011e-06
0.000218096
-2.48202e-05
6.17518e-06
0.000219831
-2.16411e-05
9.28691e-06
0.00021371
-4.18089e-06
2.06675e-05
0.000205352
1.71184e-05
2.72515e-05
0.000196339
2.84468e-05
1.80471e-05
0.000186315
2.8925e-05
4.95466e-06
0.000178652
2.21059e-05
-4.56491e-06
0.000179326
9.89889e-06
-1.1372e-05
0.000188996
-1.33927e-06
-1.35935e-05
-2.52354e-06
-4.9969e-06
0.000231373
-1.55328e-05
6.76556e-06
0.000233332
-1.54592e-06
2.13194e-05
0.000219811
1.73413e-05
2.66334e-05
0.000202585
3.07516e-05
1.903e-05
0.000190833
3.18819e-05
3.01923e-06
0.000183318
2.6808e-05
-1.23283e-05
0.000178741
2.49676e-05
-1.9093e-05
0.000178843
2.82275e-05
-1.63574e-05
0.000182656
2.91342e-05
-9.93769e-06
0.000187427
2.60116e-05
-8.67163e-06
0.000189968
2.50181e-05
-1.1034e-05
0.000186019
2.11083e-05
-7.82448e-06
0.000178119
3.87355e-06
5.62828e-06
0.000179029
-1.95195e-05
2.374e-05
0.000194756
-1.97761e-05
2.60248e-05
0.000213884
5.54294e-06
5.77936e-06
0.000221588
3.01986e-05
-1.77454e-05
0.000215662
4.3989e-05
-3.29511e-05
0.000206362
5.12543e-05
-3.68482e-05
0.0002009
5.26434e-05
-3.41748e-05
0.000197849
4.58129e-05
-3.51605e-05
0.000194949
3.31484e-05
-3.59695e-05
0.000193783
1.83128e-05
-2.8937e-05
0.000196683
3.62405e-06
-1.6177e-05
0.000203822
-4.17799e-06
-2.36129e-06
0.000213486
3.52892e-07
3.9729e-06
0.000219566
1.07504e-05
9.76336e-07
0.00021809
1.50306e-05
-4.23312e-06
0.000214829
5.53179e-06
-8.63011e-07
0.000223073
-1.42019e-05
5.72331e-06
0.000241932
-2.91791e-05
9.98522e-06
0.00025252
-2.44161e-05
1.13818e-05
0.00024466
-4.08128e-06
2.00783e-05
0.000228313
1.57383e-05
3.04782e-05
0.000215597
2.70766e-05
2.6699e-05
0.000206756
3.13299e-05
1.36428e-05
0.000198846
2.8343e-05
3.62898e-06
0.000195474
1.70644e-05
-4.12931e-06
0.00020163
-1.08111e-06
-9.01386e-06
-1.55825e-05
-6.57147e-06
0.000246634
-3.18222e-05
6.48838e-06
0.000260239
-2.33745e-05
1.55794e-05
0.000265601
2.49494e-06
2.39472e-05
0.000258695
2.50005e-05
2.81898e-05
0.000243248
3.22876e-05
2.03133e-05
0.000226396
3.1869e-05
1.76351e-06
0.000213412
3.13501e-05
-1.23633e-05
0.000206476
3.24844e-05
-9.0099e-06
0.000204124
3.18898e-05
3.97157e-06
0.000205575
2.87305e-05
6.23129e-06
0.000212386
2.66783e-05
-3.21583e-06
0.000220935
2.57217e-05
-1.00232e-05
0.000222131
1.75941e-05
-3.22672e-06
0.000216236
-4.14114e-06
1.73711e-05
0.000216117
-1.99384e-05
3.31799e-05
0.000228004
-1.06342e-05
2.40709e-05
0.000241674
1.12131e-05
-1.41292e-06
0.000245843
3.24947e-05
-2.47043e-05
0.000241815
4.81134e-05
-3.39479e-05
0.00023613
5.7682e-05
-3.28604e-05
0.000229886
5.94704e-05
-3.5571e-05
0.000221755
4.90741e-05
-4.06145e-05
0.00021517
2.77245e-05
-3.98093e-05
0.000214338
6.60616e-06
-3.12996e-05
0.000219508
-3.27508e-06
-1.66518e-05
0.000230006
9.63053e-07
-2.77524e-06
0.000240806
1.15239e-05
9.45861e-07
0.000244471
2.05372e-05
-2.16837e-06
0.000239916
1.64098e-05
-2.90402e-06
0.000240287
-5.77813e-06
1.36261e-06
0.000257771
-3.20393e-05
9.07622e-06
0.000279724
-3.39166e-05
1.42808e-05
0.000281185
-7.94541e-06
2.07388e-05
0.000260932
2.03046e-05
3.04315e-05
0.000240618
3.34034e-05
3.10583e-05
0.000231658
3.43054e-05
2.12326e-05
0.000227672
3.09499e-05
1.10194e-05
0.00022444
2.3956e-05
3.05087e-06
0.000225353
7.91984e-06
-1.81509e-06
-1.53368e-05
-1.45911e-06
0.000264993
-3.4688e-05
9.9104e-06
0.000276357
-4.18658e-05
1.34515e-05
0.000297305
-2.46949e-05
1.56994e-05
0.000312134
1.39453e-06
2.31406e-05
0.000304221
2.37955e-05
2.5927e-05
0.000277817
3.94134e-05
1.35111e-05
0.00025085
4.51791e-05
-5.10749e-06
0.000234811
4.04154e-05
-7.8498e-06
0.000228515
2.85008e-05
9.46113e-06
0.000228004
1.9148e-05
2.15499e-05
0.000233098
1.70245e-05
1.38803e-05
0.000242187
2.00715e-05
-7.47761e-07
0.000249739
2.00785e-05
-5.76603e-06
0.000250218
7.73199e-06
6.72729e-06
0.000246277
-8.13094e-06
2.59313e-05
0.000246492
-8.14771e-06
2.92806e-05
0.000252831
6.89716e-06
1.00712e-05
0.000260924
2.47565e-05
-1.71138e-05
0.000267952
3.97931e-05
-3.34414e-05
0.000270758
5.44729e-05
-3.17162e-05
0.000267531
6.82908e-05
-2.94879e-05
0.000259885
6.77924e-05
-3.50193e-05
0.000251664
4.76113e-05
-4.17608e-05
0.000246539
2.19297e-05
-4.17825e-05
0.000246277
8.32888e-06
-3.07028e-05
0.000252664
9.75383e-06
-1.33846e-05
0.000263085
1.48482e-05
-7.78556e-07
0.000270077
2.17738e-05
2.16154e-06
0.000268808
2.3655e-05
-8.78601e-07
0.000265141
7.40559e-06
-4.52713e-06
0.000272524
-2.40848e-05
-2.35226e-06
0.000294059
-3.92314e-05
6.77555e-06
0.000311402
-1.80358e-05
1.76361e-05
0.00030742
1.60772e-05
2.8395e-05
0.000288882
3.61752e-05
3.10742e-05
0.000273577
3.93327e-05
2.36528e-05
0.000266919
3.50915e-05
1.44342e-05
0.000265533
2.76939e-05
7.07146e-06
0.000265041
1.4992e-05
2.83645e-06
-7.79589e-06
4.16885e-06
0.000302963
-2.78611e-05
8.92318e-06
0.000304517
-4.55751e-05
1.44396e-05
0.000322081
-4.26997e-05
1.35565e-05
0.000344345
-2.04955e-05
1.38597e-05
0.000345424
1.43673e-05
1.72182e-05
0.000321519
4.60341e-05
1.49203e-05
0.000295183
5.9295e-05
1.55273e-06
0.000281957
4.97106e-05
-9.6951e-06
0.000277633
2.47347e-05
-1.8905e-06
0.000273414
2.1409e-06
1.75944e-05
0.000270582
-6.32678e-06
2.5568e-05
0.000271985
9.94514e-07
1.57114e-05
0.000274361
1.22203e-05
3.25957e-06
0.000274407
1.12418e-05
1.52838e-06
0.000271713
1.33224e-06
1.18919e-05
0.000269453
-1.89226e-07
2.26125e-05
0.000270871
1.06459e-05
1.92447e-05
0.000276544
2.43787e-05
-3.48964e-06
0.000286188
3.54087e-05
-3.01584e-05
0.000296406
5.06438e-05
-3.92393e-05
0.00030156
7.19303e-05
-3.60471e-05
0.000299512
8.07689e-05
-3.64158e-05
0.000293897
6.6088e-05
-4.22833e-05
0.000288669
4.00979e-05
-4.59795e-05
0.000285369
2.4245e-05
-3.99151e-05
0.000286042
2.35068e-05
-2.4579e-05
0.000291456
2.49974e-05
-7.6048e-06
0.000298313
2.44859e-05
2.27775e-06
0.000301091
2.54132e-05
2.80175e-06
0.000297472
1.85311e-05
-2.43964e-06
0.000295675
-6.62716e-06
-7.16257e-06
0.000309031
-3.09241e-05
-6.27055e-06
0.000335299
-2.66491e-05
3.59544e-06
0.000350881
2.39158e-06
1.70922e-05
0.000341612
3.20273e-05
2.66143e-05
0.00032162
4.89861e-05
2.48411e-05
0.00030842
4.76218e-05
1.70348e-05
0.00030663
3.4089e-05
9.36854e-06
0.000309338
1.74617e-05
3.96822e-06
-2.29404e-06
3.22988e-06
0.000351562
-2.05431e-05
1.96688e-06
0.000347643
-3.73253e-05
1.1163e-05
0.000350135
-4.09908e-05
1.70151e-05
0.000356901
-2.24032e-05
1.8499e-05
0.000356334
1.33831e-05
1.83159e-05
0.000346383
4.55784e-05
1.52737e-05
0.000341298
5.87233e-05
1.84037e-06
0.00035021
5.01521e-05
-1.94628e-05
0.000363052
2.44145e-05
-2.89443e-05
0.000361836
-4.52524e-06
-1.1825e-05
0.000345003
-2.10373e-05
1.27912e-05
0.000326175
-1.81238e-05
2.25177e-05
0.000313403
-2.52818e-06
1.53888e-05
0.000305039
7.2924e-06
6.00781e-06
0.00029894
6.54457e-06
2.74123e-06
0.000295677
6.09835e-06
2.99793e-06
0.000295834
1.50385e-05
5.70766e-07
0.000299498
2.69425e-05
-1.21987e-05
0.000306736
3.30435e-05
-3.29987e-05
0.000316854
4.37252e-05
-4.79645e-05
0.000327652
6.47009e-05
-5.10966e-05
0.000335313
7.88372e-05
-4.53146e-05
0.000338717
7.23823e-05
-3.9213e-05
0.00033879
5.31284e-05
-3.90507e-05
0.000335996
4.11323e-05
-3.83425e-05
0.000333128
4.36095e-05
-3.05691e-05
0.000332526
4.69008e-05
-1.63265e-05
0.000335198
4.05975e-05
-2.65878e-06
0.000339937
3.22393e-05
6.12174e-06
0.000341547
2.57732e-05
9.24779e-06
0.000337771
1.03438e-05
4.29184e-06
0.000338208
-1.41913e-05
-5.96936e-06
0.000353984
-2.47918e-05
-1.19606e-05
0.00037793
-1.08139e-05
-4.43876e-06
0.000387464
1.93717e-05
8.96224e-06
0.000377661
4.96871e-05
1.46997e-05
0.000362573
6.19926e-05
1.19877e-05
0.000354298
5.02026e-05
7.42514e-06
0.000353823
2.54305e-05
3.52577e-06
7.91547e-07
-5.60866e-07
0.000401148
-2.42294e-05
-4.74093e-06
0.000394664
-2.95732e-05
7.00561e-06
0.000380018
-2.37702e-05
2.02993e-05
0.00036567
-6.89592e-06
2.80373e-05
0.000357229
1.59965e-05
3.11325e-05
0.000356673
3.40247e-05
2.57952e-05
0.00036593
4.10294e-05
7.17995e-06
0.000385733
3.78808e-05
-2.1393e-05
0.000409568
2.4598e-05
-4.35519e-05
0.000421551
5.42369e-06
-3.85926e-05
0.000409925
-1.35751e-05
-9.69226e-06
0.000382231
-2.24978e-05
1.29464e-05
0.000355161
-1.69637e-05
1.52142e-05
0.000336687
-1.8279e-06
9.38763e-06
0.00032683
1.22813e-05
4.82936e-06
0.0003221
2.02745e-05
-4.12628e-06
0.000320864
2.81248e-05
-1.39559e-05
0.000324676
3.63668e-05
-2.18981e-05
0.000335197
3.84339e-05
-2.69894e-05
0.00035066
4.25498e-05
-2.71581e-05
0.000366024
5.6389e-05
-2.37308e-05
0.000375617
6.74157e-05
-1.56263e-05
0.000378898
6.41484e-05
-6.18189e-06
0.000378859
5.3032e-05
-6.80902e-06
0.000376141
4.9838e-05
-1.47679e-05
0.000373329
6.06885e-05
-1.8851e-05
0.000372458
7.31057e-05
-1.26599e-05
0.00037315
6.917e-05
2.52497e-06
0.000378148
5.0342e-05
1.87225e-05
0.000386456
3.23285e-05
3.10327e-05
0.000389984
2.14443e-05
3.06897e-05
0.00038467
8.58423e-06
1.16257e-05
0.000380479
-5.57606e-06
-1.38865e-05
0.000390929
-8.07258e-06
-2.79163e-05
0.000411753
6.16228e-06
-2.31707e-05
0.000423761
3.59062e-05
-1.24184e-05
0.000417744
6.31578e-05
-4.5347e-06
0.000403146
6.63015e-05
-1.61367e-07
0.000394985
4.04399e-05
6.6502e-07
1.6838e-06
-3.96022e-06
0.000447349
-2.88142e-05
-1.28571e-06
0.000439925
-3.12105e-05
1.94367e-06
0.000421564
-1.30169e-05
1.32316e-05
0.000400017
9.61785e-06
2.76949e-05
0.000386773
2.64097e-05
3.69614e-05
0.000383911
3.39186e-05
3.26081e-05
0.000388522
3.56603e-05
8.97585e-06
0.000399884
3.22538e-05
-2.47599e-05
0.000420959
2.23556e-05
-5.32241e-05
0.000445655
7.75838e-06
-5.68036e-05
0.000455615
-6.73928e-06
-3.15011e-05
0.000441116
-1.86251e-05
-5.83606e-07
0.000412562
-2.27516e-05
9.21704e-06
0.000387578
-1.39987e-05
4.69771e-06
0.000375652
4.16334e-06
4.20578e-06
0.000373066
2.28095e-05
7.08505e-06
0.000374027
3.726e-05
7.15221e-06
0.00037752
4.52968e-05
5.47936e-06
0.00038424
4.3806e-05
8.54674e-06
0.000395729
4.0204e-05
2.03903e-05
0.000410518
4.31831e-05
3.33012e-05
0.000420543
4.96381e-05
3.81156e-05
0.000419948
5.37114e-05
3.15893e-05
0.000413878
5.38996e-05
1.33587e-05
0.000410716
5.56802e-05
-2.97166e-06
0.00041432
6.64012e-05
-4.4177e-06
0.000420727
8.11396e-05
9.03877e-06
0.000422479
8.43083e-05
2.76427e-05
0.000422494
6.4128e-05
4.01166e-05
0.000429486
3.33397e-05
4.64221e-05
0.00044072
1.62098e-05
4.71178e-05
0.000443637
1.40849e-05
3.21971e-05
0.000433739
1.33047e-05
1.75842e-06
0.00042452
1.04233e-05
-2.7005e-05
0.000430017
1.03869e-05
-3.81501e-05
0.000444963
2.29169e-05
-3.34908e-05
0.000455042
4.31323e-05
-2.43517e-05
0.000454905
5.31431e-05
-1.59526e-05
0.000450223
3.79349e-05
-5.55312e-06
1.35439e-06
3.86713e-07
0.000492979
-3.97365e-05
-5.3346e-06
0.000484353
-3.52541e-05
-2.79085e-06
0.000473704
-1.21956e-05
2.65482e-06
0.000463429
1.33246e-05
1.4561e-05
0.00045324
3.41274e-05
2.39094e-05
0.000442407
4.34114e-05
1.99351e-05
0.000433358
4.18314e-05
-1.57485e-06
0.000431227
3.11945e-05
-3.60239e-05
0.000444005
1.0928e-05
-6.97165e-05
0.000473131
-1.29216e-05
-8.46692e-05
0.000501226
-2.76819e-05
-6.53454e-05
0.000503847
-2.85475e-05
-2.48415e-05
0.000477563
-2.19609e-05
2.41876e-06
0.000441206
-1.20764e-05
6.13984e-06
0.000415415
2.1135e-06
2.8755e-06
0.000407853
1.69252e-05
4.38131e-06
0.000412676
2.74719e-05
1.19264e-05
0.000423734
3.09716e-05
2.03232e-05
0.00043783
2.62558e-05
2.64166e-05
0.000453116
2.10917e-05
3.62845e-05
0.000464642
2.50112e-05
5.00081e-05
0.000465947
3.65813e-05
5.58551e-05
0.000457159
4.57923e-05
4.81663e-05
0.000448208
4.61628e-05
2.87379e-05
0.000446999
4.53294e-05
1.11069e-05
0.00045399
5.53046e-05
8.23415e-06
0.000463942
7.62822e-05
1.62918e-05
0.000470681
8.79149e-05
2.77935e-05
0.000473664
6.73379e-05
3.6265e-05
0.000479623
2.38925e-05
4.32924e-05
0.000492813
-6.09117e-06
5.06754e-05
0.000507048
-4.25392e-06
4.64482e-05
0.000507618
1.76443e-05
2.3388e-05
0.000490339
3.30545e-05
-5.02986e-06
0.000471656
3.59039e-05
-3.14197e-05
0.000465578
3.36037e-05
-4.44235e-05
0.000471318
3.20939e-05
-4.24018e-05
0.000481912
2.56285e-05
-3.4369e-05
0.000491802
6.46903e-06
-2.33383e-05
-2.09813e-05
-1.18371e-05
0.000552688
-4.91922e-05
-2.08871e-05
0.00054847
-3.72255e-05
-3.8522e-06
0.000534449
-1.06093e-05
4.49191e-06
0.000519688
1.5963e-05
3.9351e-06
0.000513154
3.33498e-05
-8.59534e-07
0.000516443
4.02221e-05
-7.9465e-06
0.000524957
3.75506e-05
-1.67065e-05
0.000532119
2.60779e-05
-3.00602e-05
0.000536181
3.4704e-06
-5.02103e-05
0.000542924
-2.80738e-05
-7.37861e-05
0.000556771
-5.27314e-05
-8.32272e-05
0.000570511
-5.40078e-05
-6.15316e-05
0.000570336
-3.44598e-05
-2.08536e-05
0.000551026
-9.93619e-06
1.10246e-05
0.000521463
4.38545e-06
2.32785e-05
0.000498044
4.46256e-06
2.00132e-05
0.000488551
2.97711e-07
8.03086e-06
0.000489539
8.21996e-08
-2.81548e-06
0.000493619
3.42401e-06
-6.97461e-06
0.000496638
7.87889e-06
-4.37411e-07
0.000495539
1.43973e-05
1.66218e-05
0.000489368
2.13816e-05
3.49894e-05
0.000482056
1.93938e-05
4.51209e-05
0.000480827
9.05322e-06
3.88593e-05
0.000488485
8.11977e-06
2.0129e-05
0.000502346
2.86246e-05
6.86186e-06
0.000517999
6.28757e-05
6.04379e-06
0.00053053
8.26669e-05
1.52829e-05
0.000536213
6.33798e-05
2.53994e-05
0.000536832
1.87434e-05
2.89094e-05
0.00054081
-1.45141e-05
3.02095e-05
0.000554172
-1.71049e-05
3.20543e-05
0.000567931
5.34326e-06
2.96936e-05
0.00056679
3.16387e-05
1.68271e-05
0.000551424
4.59073e-05
-8.66968e-06
0.000536071
4.80128e-05
-4.0101e-05
0.000527666
3.94436e-05
-5.73463e-05
0.000526366
2.0242e-05
-6.01759e-05
0.000532751
-7.95357e-06
-5.42818e-05
-3.68443e-05
-4.00979e-05
0.000598777
-3.88364e-05
-4.62384e-05
0.000598619
-3.12594e-05
-2.33547e-05
0.000596947
-7.98512e-06
1.06092e-06
0.00059236
1.60286e-05
2.22217e-05
0.000587908
3.39623e-05
2.75701e-05
0.000589839
3.8859e-05
1.45729e-05
0.000601758
3.16059e-05
-8.98988e-06
0.000622113
1.71615e-05
-3.20141e-05
0.000643231
-5.56462e-06
-4.39715e-05
0.000657465
-3.40823e-05
-5.24402e-05
0.000661999
-5.63914e-05
-6.41681e-05
0.0006578
-5.63286e-05
-6.79789e-05
0.000648376
-3.3516e-05
-5.1745e-05
0.000637441
-5.78758e-06
-2.04791e-05
0.000631673
4.74057e-06
9.47679e-06
0.000634417
-1.17597e-05
2.65663e-05
0.00064032
-3.38869e-05
2.58496e-05
0.000639092
-3.90489e-05
1.28954e-05
0.000623502
-2.34247e-05
-3.5049e-06
0.000597709
-1.23993e-06
-1.45278e-05
0.000573747
1.25446e-05
-1.16111e-05
0.000559971
1.47612e-05
3.94613e-06
0.00055603
4.28817e-06
2.1617e-05
0.000558143
-1.05734e-05
2.75758e-05
0.000563143
-1.37934e-05
1.59278e-05
0.000571864
1.92661e-06
1.61896e-06
0.000585484
3.13239e-05
1.9198e-06
0.00060103
5.13941e-05
1.76334e-05
0.000611474
4.31089e-05
3.33247e-05
0.000610892
1.70616e-05
3.23574e-05
0.000603366
-4.5956e-06
2.08342e-05
0.000598129
-8.73841e-06
1.4235e-05
0.000599126
2.30817e-06
1.8225e-05
0.000602433
1.66858e-05
2.57219e-05
0.00060591
2.5288e-05
1.92025e-05
0.000611238
2.80722e-05
-9.9751e-06
0.000615047
2.53542e-05
-4.36045e-05
0.000612874
1.59644e-05
-6.31396e-05
0.000606633
-3.57371e-06
-6.68316e-05
-2.65938e-05
-6.07556e-05
0.000676027
-2.61569e-05
-7.73629e-05
0.000664413
-2.15843e-05
-6.60066e-05
0.000654792
-4.04165e-06
-3.15808e-05
0.000649436
1.51472e-05
1.20934e-05
0.000652118
2.82023e-05