/*--------------------------------*- C++ -*----------------------------------*\
| =========                 |                                                 |
| \\      /  F ield         | OpenFOAM: The Open Source CFD Toolbox           |
|  \\    /   O peration     | Version:  2.3.0                                 |
|   \\  /    A nd           | Web:      www.OpenFOAM.org                      |
|    \\/     M anipulation  |                                                 |
\*---------------------------------------------------------------------------*/
FoamFile
{
    version     2.0;
    format      ascii;
    class       surfaceScalarField;
    location    "200";
    object      phi;
}
// * * * * * * * * * * * * * * * * * * * * * * * * * * * * * * * * * * * * * //

dimensions      [0 3 -1 0 0 0 0];

internalField   nonuniform List<scalar> 
263700
(
3.01802e-06
1.17065e-07
-1.88523e-07
3.02432e-06
1.22396e-07
-1.89707e-07
3.01919e-06
1.28883e-07
-1.84934e-07
3.01714e-06
1.08395e-07
-1.75137e-07
3.01992e-06
7.32081e-08
-1.61923e-07
3.02398e-06
3.96437e-08
-1.56648e-07
3.03953e-06
-3.6501e-09
-1.57055e-07
3.05771e-06
-3.26642e-08
-1.55369e-07
3.07448e-06
-4.92723e-08
-1.52111e-07
3.08637e-06
-5.68283e-08
-1.38109e-07
3.08671e-06
-5.0006e-08
-1.20384e-07
3.08748e-06
-4.98927e-08
-1.0448e-07
3.08197e-06
-4.24255e-08
-8.52874e-08
3.07247e-06
-3.6229e-08
-6.78703e-08
3.05472e-06
-2.766e-08
-4.98924e-08
3.02304e-06
-1.1081e-08
-3.84092e-08
2.98833e-06
-1.40843e-10
-3.91723e-08
2.94866e-06
1.63688e-08
-4.54723e-08
2.91299e-06
2.21994e-08
-5.23476e-08
2.87903e-06
2.53867e-08
-5.00596e-08
2.84548e-06
2.65967e-08
-4.26604e-08
2.82009e-06
2.01407e-08
-3.9627e-08
2.79653e-06
1.94323e-08
-4.0669e-08
2.77459e-06
1.80886e-08
-4.52993e-08
2.75907e-06
1.19701e-08
-5.25544e-08
2.74638e-06
5.88984e-09
-5.1708e-08
2.73569e-06
-2.67591e-09
-4.62789e-08
2.72764e-06
-1.18672e-08
-4.00214e-08
2.71886e-06
-1.40155e-08
-3.94353e-08
2.71144e-06
-3.72585e-09
-5.14043e-08
2.71262e-06
1.59682e-08
-7.55523e-08
2.72248e-06
2.70326e-08
-7.77869e-08
2.72996e-06
3.74209e-08
-5.37304e-08
2.74513e-06
2.62346e-08
-2.096e-08
2.75445e-06
1.99582e-08
1.96708e-08
2.76152e-06
1.92101e-08
3.55806e-08
2.78294e-06
2.25142e-08
9.26576e-09
2.80022e-06
3.74941e-08
-2.08279e-08
2.81045e-06
5.6364e-08
-6.20347e-08
2.81964e-06
8.53054e-08
-1.25857e-07
2.84498e-06
1.17846e-07
-2.05789e-07
2.88059e-06
1.43875e-07
-2.45116e-07
2.92222e-06
1.37434e-07
-2.20155e-07
2.94014e-06
1.32487e-07
-1.55303e-07
2.94097e-06
1.14941e-07
-9.14404e-08
2.94638e-06
8.53139e-08
-6.99145e-08
2.9509e-06
7.7969e-08
-8.10297e-08
2.96686e-06
6.31764e-08
-1.10915e-07
2.99154e-06
7.12704e-08
-1.48974e-07
9.39575e-08
-1.74928e-07
9.99085e-06
4.01886e-07
-5.58187e-07
1.00318e-05
4.03653e-07
-5.51108e-07
1.00586e-05
3.99931e-07
-5.33902e-07
1.00929e-05
3.19847e-07
-5.01503e-07
1.01289e-05
2.09923e-07
-4.68208e-07
1.01631e-05
1.07616e-07
-4.49137e-07
1.02052e-05
-8.35404e-09
-4.32056e-07
1.02394e-05
-8.19267e-08
-4.1029e-07
1.02617e-05
-1.22581e-07
-3.86726e-07
1.02667e-05
-1.38094e-07
-3.43615e-07
1.02507e-05
-1.19426e-07
-3.01947e-07
1.02295e-05
-1.13813e-07
-2.63574e-07
1.01923e-05
-8.97648e-08
-2.19926e-07
1.0146e-05
-7.02449e-08
-1.84296e-07
1.00818e-05
-4.57417e-08
-1.46971e-07
9.99723e-06
-6.07253e-09
-1.2345e-07
9.90808e-06
2.2751e-08
-1.23557e-07
9.81111e-06
6.14839e-08
-1.29064e-07
9.71863e-06
7.42831e-08
-1.36897e-07
9.62612e-06
8.46521e-08
-1.34793e-07
9.53401e-06
8.90999e-08
-1.33712e-07
9.45068e-06
7.78505e-08
-1.40094e-07
9.3692e-06
7.6832e-08
-1.49286e-07
9.29202e-06
7.41444e-08
-1.64605e-07
9.22466e-06
5.9125e-08
-1.76945e-07
9.16236e-06
4.49323e-08
-1.7393e-07
9.10571e-06
2.59587e-08
-1.67007e-07
9.05709e-06
9.82641e-09
-1.62143e-07
9.01472e-06
1.63679e-08
-1.72017e-07
8.98517e-06
6.2542e-08
-2.07284e-07
8.97876e-06
1.30804e-07
-2.55875e-07
8.99209e-06
1.68638e-07
-2.57134e-07
9.01056e-06
1.96199e-07
-2.22821e-07
9.04692e-06
1.79936e-07
-1.82841e-07
9.07955e-06
1.72397e-07
-1.46186e-07
9.11677e-06
1.71964e-07
-1.51935e-07
9.17276e-06
1.76007e-07
-2.01866e-07
9.22357e-06
2.10501e-07
-2.72798e-07
9.27026e-06
2.67078e-07
-3.60323e-07
9.32157e-06
3.56703e-07
-4.71626e-07
9.39811e-06
4.40207e-07
-5.76735e-07
9.48653e-06
5.06539e-07
-6.08796e-07
9.57935e-06
4.91135e-07
-5.53897e-07
9.63738e-06
4.69643e-07
-4.47708e-07
9.67868e-06
4.00804e-07
-3.65898e-07
9.72284e-06
3.15492e-07
-3.45978e-07
9.7669e-06
2.86995e-07
-3.82717e-07
9.82666e-06
2.75681e-07
-4.51629e-07
9.8924e-06
2.99828e-07
-5.10666e-07
3.55175e-07
-5.45958e-07
1.84938e-05
8.72389e-07
-1.00212e-06
1.8594e-05
8.5776e-07
-9.81193e-07
1.86778e-05
8.25334e-07
-9.43433e-07
1.87662e-05
6.55023e-07
-8.77986e-07
1.88495e-05
4.41862e-07
-8.16125e-07
1.89201e-05
2.49354e-07
-7.69564e-07
1.89871e-05
3.92234e-08
-7.21525e-07
1.90347e-05
-9.48645e-08
-6.69289e-07
1.90593e-05
-1.69002e-07
-6.21751e-07
1.9056e-05
-1.99496e-07
-5.49664e-07
1.90254e-05
-1.72808e-07
-4.86744e-07
1.89857e-05
-1.6062e-07
-4.32435e-07
1.89244e-05
-1.18345e-07
-3.6948e-07
1.88543e-05
-8.40007e-08
-3.20578e-07
1.87631e-05
-4.02313e-08
-2.67808e-07
1.86479e-05
2.35464e-08
-2.27502e-07
1.85275e-05
7.01027e-08
-2.19448e-07
1.83953e-05
1.30076e-07
-2.15943e-07
1.82613e-05
1.473e-07
-2.18882e-07
1.81196e-05
1.62795e-07
-2.13946e-07
1.79684e-05
1.72422e-07
-2.18898e-07
1.78141e-05
1.60756e-07
-2.32912e-07
1.76528e-05
1.63022e-07
-2.51971e-07
1.7489e-05
1.6537e-07
-2.80112e-07
1.73299e-05
1.45875e-07
-3.006e-07
1.71731e-05
1.26915e-07
-2.9903e-07
1.70246e-05
9.79225e-08
-2.93308e-07
1.68913e-05
7.75244e-08
-2.92243e-07
1.6774e-05
1.03353e-07
-3.15844e-07
1.66851e-05
2.04543e-07
-3.74718e-07
1.66399e-05
3.46073e-07
-4.57132e-07
1.6632e-05
4.35339e-07
-4.84304e-07
1.66419e-05
4.9499e-07
-4.64781e-07
1.66849e-05
4.87272e-07
-4.44419e-07
1.67346e-05
4.97264e-07
-4.29215e-07
1.67954e-05
5.01301e-07
-4.55702e-07
1.68823e-05
4.98253e-07
-5.23472e-07
1.69697e-05
5.52414e-07
-6.05959e-07
1.70582e-05
6.47744e-07
-7.07818e-07
1.7159e-05
7.93667e-07
-8.25393e-07
1.72961e-05
9.28543e-07
-9.42321e-07
1.74536e-05
1.03952e-06
-9.79425e-07
1.76193e-05
1.00999e-06
-9.16266e-07
1.77481e-05
9.61973e-07
-7.96831e-07
1.78552e-05
8.2913e-07
-7.20665e-07
1.79571e-05
6.87833e-07
-7.12797e-07
1.80546e-05
6.55867e-07
-7.79954e-07
1.81667e-05
6.6935e-07
-8.8232e-07
1.82843e-05
7.14876e-07
-9.54632e-07
8.06967e-07
-9.95254e-07
2.8598e-05
1.58834e-06
-1.56479e-06
2.87707e-05
1.55236e-06
-1.53377e-06
2.89232e-05
1.48641e-06
-1.4824e-06
2.90727e-05
1.20627e-06
-1.383e-06
2.92099e-05
8.63725e-07
-1.28592e-06
2.93229e-05
5.6366e-07
-1.20719e-06
2.94188e-05
2.34218e-07
-1.11575e-06
2.94869e-05
9.7466e-09
-1.01377e-06
2.95239e-05
-1.19611e-07
-9.28329e-07
2.95246e-05
-1.85532e-07
-8.12875e-07
2.94946e-05
-1.72036e-07
-7.12856e-07
2.94551e-05
-1.65597e-07
-6.37163e-07
2.93909e-05
-1.14978e-07
-5.48861e-07
2.93219e-05
-7.40547e-08
-4.83398e-07
2.92341e-05
-8.59342e-09
-4.19897e-07
2.91226e-05
8.26539e-08
-3.62106e-07
2.90088e-05
1.46605e-07
-3.41963e-07
2.88839e-05
2.24606e-07
-3.19901e-07
2.87508e-05
2.39021e-07
-3.05114e-07
2.85985e-05
2.47907e-07
-2.78418e-07
2.84205e-05
2.56529e-07
-2.73526e-07
2.82134e-05
2.49144e-07
-2.89518e-07
2.79732e-05
2.59515e-07
-3.1416e-07
2.77059e-05
2.78553e-07
-3.5769e-07
2.74198e-05
2.66302e-07
-3.9318e-07
2.71157e-05
2.51702e-07
-3.95857e-07
2.68091e-05
2.12861e-07
-3.88879e-07
2.65193e-05
1.80578e-07
-3.83572e-07
2.6253e-05
2.2483e-07
-4.14838e-07
2.60316e-05
3.84705e-07
-4.88473e-07
2.58838e-05
6.05449e-07
-5.98709e-07
2.58011e-05
7.69685e-07
-6.62251e-07
2.57546e-05
8.82026e-07
-6.62667e-07
2.57645e-05
9.01319e-07
-6.65393e-07
2.58033e-05
9.65662e-07
-6.93999e-07
2.58663e-05
1.01964e-06
-7.75174e-07
2.59687e-05
1.03698e-06
-8.86849e-07
2.60861e-05
1.10929e-06
-9.89663e-07
2.62168e-05
1.22318e-06
-1.09669e-06
2.63736e-05
1.38623e-06
-1.19721e-06
2.65873e-05
1.52846e-06
-1.29926e-06
2.68378e-05
1.65737e-06
-1.32577e-06
2.71051e-05
1.58525e-06
-1.23918e-06
2.73351e-05
1.49259e-06
-1.10586e-06
2.75353e-05
1.305e-06
-1.049e-06
2.77195e-05
1.13225e-06
-1.07602e-06
2.78907e-05
1.14447e-06
-1.20453e-06
2.80707e-05
1.23985e-06
-1.37538e-06
2.82538e-05
1.33935e-06
-1.48781e-06
1.49327e-06
-1.55248e-06
4.03358e-05
2.55742e-06
-2.2293e-06
4.05916e-05
2.52548e-06
-2.21341e-06
4.08234e-05
2.45299e-06
-2.18318e-06
4.10364e-05
2.08086e-06
-2.08203e-06
4.12242e-05
1.59815e-06
-1.96217e-06
4.13761e-05
1.18517e-06
-1.86592e-06
4.14944e-05
7.20469e-07
-1.73336e-06
4.15779e-05
3.63871e-07
-1.55876e-06
4.16272e-05
1.42919e-07
-1.41007e-06
4.1636e-05
9.25945e-09
-1.22371e-06
4.16159e-05
-2.96804e-08
-1.0526e-06
4.15892e-05
-5.89686e-08
-9.31115e-07
4.15364e-05
-2.73667e-08
-7.9419e-07
4.14851e-05
-1.25491e-08
-6.8736e-07
4.14215e-05
5.97663e-08
-6.04134e-07
4.13423e-05
1.76493e-07
-5.27228e-07
4.12722e-05
2.61949e-07
-5.00919e-07
4.12031e-05
3.59994e-07
-4.57721e-07
4.11363e-05
3.65098e-07
-4.16301e-07
4.1048e-05
3.52404e-07
-3.49742e-07
4.09286e-05
3.37517e-07
-3.04611e-07
4.07579e-05
3.27124e-07
-3.07443e-07
4.05168e-05
3.43063e-07
-3.24591e-07
4.02049e-05
3.85634e-07
-3.72871e-07
3.98235e-05
3.9555e-07
-4.24119e-07
3.93682e-05
4.03981e-07
-4.3295e-07
3.88594e-05
3.73063e-07
-4.28459e-07
3.83376e-05
3.2383e-07
-4.09227e-07
3.7828e-05
3.72922e-07
-4.33894e-07
3.73646e-05
5.87847e-07
-5.1337e-07
3.70024e-05
8.64213e-07
-6.24949e-07
3.67447e-05
1.09791e-06
-7.10679e-07
3.65492e-05
1.27242e-06
-7.24924e-07
3.64395e-05
1.30937e-06
-7.22241e-07
3.63978e-05
1.44099e-06
-7.73448e-07
3.64129e-05
1.61e-06
-9.37891e-07
3.64907e-05
1.74457e-06
-1.16821e-06
3.66076e-05
1.9145e-06
-1.3749e-06
3.67597e-05
2.08439e-06
-1.55244e-06
3.69561e-05
2.2399e-06
-1.65011e-06
3.72415e-05
2.28696e-06
-1.68564e-06
3.75921e-05
2.32983e-06
-1.63348e-06
3.79762e-05
2.1129e-06
-1.45334e-06
3.83328e-05
1.88738e-06
-1.2473e-06
3.86556e-05
1.60843e-06
-1.1794e-06
3.89593e-05
1.39868e-06
-1.23684e-06
3.92471e-05
1.49652e-06
-1.44946e-06
3.95356e-05
1.78509e-06
-1.76073e-06
3.9818e-05
2.0452e-06
-1.99577e-06
2.35912e-06
-2.15737e-06
5.36015e-05
3.49997e-06
-2.7665e-06
5.39864e-05
3.6033e-06
-2.85742e-06
5.43407e-05
3.60712e-06
-2.91431e-06
5.46502e-05
3.24229e-06
-2.89909e-06
5.49002e-05
2.6803e-06
-2.82181e-06
5.50898e-05
2.19636e-06
-2.76818e-06
5.52104e-05
1.63552e-06
-2.65152e-06
5.5279e-05
1.12427e-06
-2.41242e-06
5.53141e-05
7.64566e-07
-2.18353e-06
5.53059e-05
5.25125e-07
-1.90019e-06
5.52816e-05
3.83335e-07
-1.61673e-06
5.52624e-05
2.81676e-07
-1.41941e-06
5.52128e-05
2.69744e-07
-1.20833e-06
5.51691e-05
2.09129e-07
-1.01597e-06
5.51153e-05
2.42224e-07
-8.74231e-07
5.50562e-05
3.47104e-07
-7.43041e-07
5.50278e-05
4.34124e-07
-6.98484e-07
5.5019e-05
5.5714e-07
-6.376e-07
5.50483e-05
5.47977e-07
-5.62404e-07
5.50792e-05
5.10907e-07
-4.5635e-07
5.50997e-05
4.55707e-07
-3.49746e-07
5.50881e-05
4.20771e-07
-3.16742e-07
5.49978e-05
4.23052e-07
-3.13324e-07
5.48093e-05
4.71817e-07
-3.41696e-07
5.45022e-05
4.97884e-07
-3.89549e-07
5.40465e-05
5.27907e-07
-3.82976e-07
5.34404e-05
5.31351e-07
-3.79848e-07
5.27235e-05
5.01307e-07
-3.55902e-07
5.19501e-05
5.48228e-07
-3.55319e-07
5.11727e-05
8.27445e-07
-4.408e-07
5.04776e-05
1.14292e-06
-5.37724e-07
4.99094e-05
1.4046e-06
-6.09292e-07
4.94259e-05
1.63941e-06
-6.39101e-07
4.90456e-05
1.67599e-06
-6.28902e-07
4.87688e-05
1.82716e-06
-6.48856e-07
4.86071e-05
2.08447e-06
-8.28505e-07
4.85615e-05
2.39105e-06
-1.16102e-06
4.86021e-05
2.79239e-06
-1.52925e-06
4.87213e-05
3.19716e-06
-1.91852e-06
4.89069e-05
3.50765e-06
-2.17767e-06
4.92192e-05
3.43667e-06
-2.19885e-06
4.96378e-05
3.2461e-06
-2.01176e-06
5.01114e-05
2.69795e-06
-1.63471e-06
5.05773e-05
2.13597e-06
-1.23554e-06
5.10077e-05
1.60664e-06
-1.05377e-06
5.14255e-05
1.22811e-06
-1.05564e-06
5.18534e-05
1.27831e-06
-1.24665e-06
5.23057e-05
1.76694e-06
-1.66712e-06
5.27637e-05
2.30777e-06
-2.09395e-06
2.97404e-06
-2.48038e-06
6.78789e-05
3.62669e-06
-2.64355e-06
6.85055e-05
4.17555e-06
-3.03203e-06
6.90967e-05
4.44011e-06
-3.29111e-06
6.96238e-05
4.25883e-06
-3.47822e-06
7.00349e-05
3.80157e-06
-3.56654e-06
7.03406e-05
3.39137e-06
-3.67492e-06
7.05007e-05
2.9052e-06
-3.73196e-06
7.05366e-05
2.3452e-06
-3.54291e-06
7.05237e-05
1.83561e-06
-3.27509e-06
7.04528e-05
1.4617e-06
-2.90855e-06
7.03817e-05
1.15807e-06
-2.48064e-06
7.03569e-05
9.23078e-07
-2.17005e-06
7.03067e-05
8.66552e-07
-1.88822e-06
7.02599e-05
7.20037e-07
-1.59438e-06
7.01905e-05
6.82149e-07
-1.36504e-06
7.00979e-05
7.31247e-07
-1.1364e-06
7.00519e-05
7.41087e-07
-1.00696e-06
7.00376e-05
8.47648e-07
-9.00926e-07
7.00997e-05
7.94625e-07
-7.61113e-07
7.02122e-05
7.17533e-07
-5.96653e-07
7.03492e-05
6.32972e-07
-4.31322e-07
7.05081e-05
5.90985e-07
-3.56295e-07
7.06328e-05
5.98147e-07
-3.42219e-07
7.06884e-05
6.37272e-07
-3.45285e-07
7.06425e-05
6.48169e-07
-3.717e-07
7.04358e-05
6.41026e-07
-2.99229e-07
7.00341e-05
6.01064e-07
-2.23295e-07
6.9418e-05
6.05802e-07
-1.8793e-07
6.86231e-05
6.61412e-07
-1.46503e-07
6.77059e-05
1.00412e-06
-2.11353e-07
6.67501e-05
1.41242e-06
-3.17332e-07
6.58452e-05
1.68763e-06
-3.3706e-07
6.49931e-05
1.97774e-06
-3.56331e-07
6.42152e-05
2.04229e-06
-3.85226e-07
6.35107e-05
2.21811e-06
-4.32289e-07
6.29398e-05
2.50045e-06
-6.19579e-07
6.25458e-05
2.887e-06
-9.70712e-07
6.23186e-05
3.49352e-06
-1.38762e-06
6.22767e-05
4.23342e-06
-1.94024e-06
6.23714e-05
5.00802e-06
-2.50461e-06
6.26479e-05
5.0747e-06
-2.72665e-06
6.30885e-05
4.67138e-06
-2.51071e-06
6.36034e-05
3.67699e-06
-1.9334e-06
6.41244e-05
2.57209e-06
-1.2576e-06
6.45873e-05
1.58395e-06
-8.70285e-07
6.49984e-05
8.64411e-07
-7.61514e-07
6.54236e-05
5.56062e-07
-7.84534e-07
6.59359e-05
8.89421e-07
-1.05334e-06
6.65434e-05
1.50561e-06
-1.47653e-06
2.51493e-06
-2.01352e-06
8.24713e-05
2.3135e-06
-1.63539e-06
8.33291e-05
3.46043e-06
-2.3159e-06
8.42128e-05
4.21012e-06
-2.86878e-06
8.50922e-05
4.36664e-06
-3.33202e-06
8.58399e-05
4.20777e-06
-3.66857e-06
8.64554e-05
4.07086e-06
-4.02155e-06
8.6862e-05
3.9222e-06
-4.42719e-06
8.69913e-05
3.66137e-06
-4.55146e-06
8.69779e-05
3.20263e-06
-4.43804e-06
8.68481e-05
2.76123e-06
-4.11589e-06
8.66848e-05
2.29042e-06
-3.59744e-06
8.66247e-05
1.82388e-06
-3.13124e-06
8.65987e-05
1.67598e-06
-2.7728e-06
8.6597e-05
1.47542e-06
-2.40704e-06
8.65738e-05
1.38441e-06
-2.09887e-06
8.64783e-05
1.41183e-06
-1.80869e-06
8.63901e-05
1.30484e-06
-1.56485e-06
8.63118e-05
1.29604e-06
-1.36313e-06
8.63047e-05
1.10457e-06
-1.11194e-06
8.639e-05
8.85003e-07
-8.02957e-07
8.65419e-05
7.24682e-07
-5.31342e-07
8.67661e-05
7.06175e-07
-4.06746e-07
8.70081e-05
8.30565e-07
-4.27315e-07
8.72135e-05
9.81335e-07
-4.75422e-07
8.73602e-05
1.0602e-06
-5.32359e-07
8.73831e-05
1.0585e-06
-4.26571e-07
8.72737e-05
8.39565e-07
-1.70407e-07
8.70028e-05
7.03561e-07
3.98083e-09
8.65521e-05
6.23416e-07
2.06834e-07
8.59541e-05
8.96596e-07
2.55554e-07
8.52084e-05
1.40631e-06
1.49382e-07
8.43405e-05
1.74856e-06
1.93627e-07
8.33733e-05
2.10822e-06
2.7544e-07
8.23598e-05
2.25503e-06
2.54647e-07
8.1281e-05
2.62323e-06
4.8909e-08
8.02073e-05
3.0321e-06
-3.24965e-07
7.925e-05
3.46917e-06
-8.52996e-07
7.84686e-05
4.10527e-06
-1.30394e-06
7.79927e-05
4.98279e-06
-1.84184e-06
7.7816e-05
6.29836e-06
-2.58015e-06
7.79499e-05
6.84941e-06
-3.07667e-06
7.83668e-05
6.48277e-06
-2.96908e-06
7.89085e-05
5.14165e-06
-2.29154e-06
7.94766e-05
3.50593e-06
-1.36451e-06
7.99697e-05
2.01195e-06
-7.68136e-07
8.03006e-05
9.8383e-07
-6.40865e-07
8.0496e-05
2.5876e-07
-6.22383e-07
8.07155e-05
3.73622e-08
-6.46557e-07
8.10831e-05
1.37752e-07
-7.41609e-07
8.87066e-07
-9.69978e-07
9.78712e-05
4.59643e-07
-5.48006e-07
9.84454e-05
1.61375e-06
-1.01334e-06
9.92689e-05
2.7074e-06
-1.6509e-06
0.000100305
3.18867e-06
-2.33606e-06
0.00010136
3.30707e-06
-2.89143e-06
0.000102347
3.48319e-06
-3.4214e-06
0.000103197
3.7585e-06
-4.11441e-06
0.000103691
4.13894e-06
-4.70511e-06
0.000103888
4.20771e-06
-5.03909e-06
0.00010385
4.03081e-06
-5.04444e-06
0.000103648
3.59595e-06
-4.67931e-06
0.000103514
2.91376e-06
-4.13939e-06
0.000103497
2.56509e-06
-3.67899e-06
0.000103584
2.30628e-06
-3.26553e-06
0.000103723
2.18339e-06
-2.86936e-06
0.000103816
2.23413e-06
-2.55666e-06
0.000103869
2.07122e-06
-2.26342e-06
0.000103872
1.90693e-06
-1.98381e-06
0.000103867
1.47898e-06
-1.65623e-06
0.000103903
9.49794e-07
-1.15137e-06
0.000104011
4.97057e-07
-6.47516e-07
0.000104221
3.61658e-07
-3.65695e-07
0.000104506
6.18885e-07
-3.99104e-07
0.000104778
1.09052e-06
-6.11736e-07
0.000104998
1.45728e-06
-8.5021e-07
0.000105083
1.72411e-06
-9.30632e-07
0.000105001
1.54206e-06
-6.29988e-07
0.000104783
1.24168e-06
-2.68145e-07
0.00010444
9.43235e-07
1.48757e-07
0.000104091
8.91142e-07
5.54183e-07
0.000103769
1.21565e-06
6.88276e-07
0.00010339
1.41618e-06
9.7599e-07
0.00010287
1.63792e-06
1.41716e-06
0.000102224
1.70287e-06
1.69609e-06
0.000101389
2.27161e-06
1.59452e-06
0.000100327
3.17389e-06
8.59955e-07
9.91049e-05
3.98227e-06
-2.07946e-07
9.78115e-05
4.70393e-06
-1.09785e-06
9.67312e-05
5.44176e-06
-1.80317e-06
9.60773e-05
6.9977e-06
-2.68923e-06
9.58916e-05
8.16059e-06
-3.46689e-06
9.61432e-05
8.17176e-06
-3.52468e-06
9.66285e-05
6.7338e-06
-2.77181e-06
9.7194e-05
4.75778e-06
-1.54139e-06
9.77615e-05
2.79697e-06
-6.13741e-07
9.8182e-05
1.66146e-06
-4.70963e-07
9.82684e-05
1.03885e-06
-6.94332e-07
9.80845e-05
5.1123e-07
-8.74996e-07
9.7789e-05
-7.33078e-08
-8.22645e-07
-3.11342e-07
-4.81456e-07
0.000116374
1.22316e-07
-4.97479e-07
0.000115851
2.15807e-07
-9.94892e-08
0.000115799
8.36137e-07
-2.06333e-07
0.000116257
1.30325e-06
-8.37667e-07
0.000117078
1.42884e-06
-1.51113e-06
0.000118044
1.68782e-06
-2.15554e-06
0.000119076
2.1675e-06
-2.92791e-06
0.000119904
3.09818e-06
-3.76567e-06
0.000120412
4.01507e-06
-4.56166e-06
0.000120628
4.58528e-06
-5.08793e-06
0.000120558
4.61951e-06
-5.19498e-06
0.000120399
4.02738e-06
-4.87458e-06
0.000120334
3.5129e-06
-4.39927e-06
0.000120447
3.18061e-06
-3.98488e-06
0.000120703
3.05831e-06
-3.48924e-06
0.000121051
3.12777e-06
-3.08437e-06
0.000121442
2.92863e-06
-2.73376e-06
0.000121816
2.60257e-06
-2.36533e-06
0.000122173
1.88931e-06
-2.03414e-06
0.000122454
9.67314e-07
-1.44921e-06
0.000122706
-6.3351e-09
-6.95156e-07
0.000122996
-5.98904e-07
-1.1725e-07
0.000123378
-4.98504e-07
1.30443e-08
0.000123808
2.2569e-07
-3.4052e-07
0.000124197
1.01173e-06
-8.72352e-07
0.000124459
1.7241e-06
-1.35862e-06
0.00012444
1.9168e-06
-1.39786e-06
0.00012415
1.80252e-06
-1.12888e-06
0.000123595
1.6777e-06
-8.26654e-07
0.000122936
1.66113e-06
-2.8728e-07
0.000122377
1.71128e-06
2.57379e-07
0.000121956
1.45516e-06
1.11039e-06
0.0001216
1.07195e-06
2.35965e-06
0.000121309
4.55544e-07
3.52064e-06
0.000121098
5.68094e-07
4.18553e-06
0.000120848
1.69597e-06
3.73808e-06
0.000120377
3.20838e-06
2.19368e-06
0.000119495
4.601e-06
3.67586e-07
0.000118331
5.37828e-06
-1.04235e-06
0.000117359
6.81855e-06
-2.39502e-06
0.000116865
8.34923e-06
-3.75572e-06
0.000116857
8.99405e-06
-4.32797e-06
0.000117114
7.85992e-06
-3.73373e-06
0.000117426
5.78933e-06
-2.22876e-06
0.000117798
3.50662e-06
-7.0814e-07
0.000118294
2.22535e-06
-1.31625e-07
0.000118656
1.95986e-06
-4.13822e-07
0.000118661
1.96262e-06
-1.04094e-06
0.000118154
1.55075e-06
-1.51176e-06
6.12725e-07
-1.12427e-06
0.00013907
1.85764e-06
-1.6437e-06
0.000137765
7.11844e-07
-5.84605e-07
0.000136556
1.03858e-07
3.41667e-07
0.000135788
-1.94032e-07
5.23388e-07
0.000135588
-4.08859e-07
7.19328e-08
0.000135797
-3.22448e-07
-7.11377e-07
0.000136274
7.97759e-08
-1.61404e-06
0.000136792
1.12498e-06
-2.4832e-06
0.000137155
2.66083e-06
-3.45145e-06
0.000137339
4.14737e-06
-4.3155e-06
0.000137321
4.99139e-06
-4.91185e-06
0.000137172
4.88036e-06
-5.04402e-06
0.000137029
4.43373e-06
-4.71498e-06
0.000137088
4.11134e-06
-4.38934e-06
0.000137336
4.08231e-06
-3.86931e-06
0.000137776
4.22954e-06
-3.3398e-06
0.000138406
4.00011e-06
-2.8839e-06
0.000139097
3.50534e-06
-2.3469e-06
0.000139912
2.48823e-06
-1.93171e-06
0.000140688
1.19843e-06
-1.32852e-06
0.000141381
-3.53703e-07
-3.78057e-07
0.000142057
-1.4829e-06
4.03556e-07
0.000142739
-1.87521e-06
8.75503e-07
0.00014356
-1.36995e-06
6.49016e-07
0.000144401
-4.3124e-07
-6.37389e-08
0.000145188
5.42841e-07
-9.27526e-07
0.000145629
1.03767e-06
-1.49262e-06
0.000145615
1.17659e-06
-1.58036e-06
0.000145175
1.3961e-06
-1.7411e-06
0.000144402
1.92013e-06
-1.75947e-06
0.000143537
2.51199e-06
-1.64082e-06
0.000142654
2.34707e-06
-7.54036e-07
0.000141787
1.4617e-06
1.26429e-06
0.000140931
-1.15744e-07
3.80734e-06
0.000140265
-1.21643e-06
6.15814e-06
0.000140048
-9.05809e-07
7.11762e-06
0.00014026
6.0689e-07
6.14902e-06
0.000140544
2.59145e-06
3.87228e-06
0.000140439
3.91909e-06
1.39422e-06
0.000140039
5.47961e-06
-8.18264e-07
0.000139703
7.1992e-06
-2.99032e-06
0.000139611
8.49729e-06
-4.48709e-06
0.000139607
8.00755e-06
-4.59772e-06
0.000139495
6.22057e-06
-3.29713e-06
0.000139282
3.82863e-06
-1.40593e-06
0.000139313
2.29354e-06
-1.13238e-07
0.000139643
2.1096e-06
5.31977e-08
0.000140147
2.67638e-06
-5.70999e-07
0.000140439
3.33432e-06
-1.82843e-06
2.95906e-06
-2.22207e-06
0.000162169
4.17886e-06
-3.10854e-06
0.000161653
2.66641e-06
-2.40184e-06
0.000160527
7.97616e-07
-6.86581e-07
0.000159271
-7.4519e-07
5.7083e-07
0.000158269
-1.65571e-06
1.01782e-06
0.000157645
-1.84086e-06
5.6995e-07
0.000157277
-1.44963e-06
-5.38844e-07
0.000156953
-4.5219e-07
-1.57582e-06
0.000156507
1.23397e-06
-2.61765e-06
0.000155982
3.29804e-06
-3.57163e-06
0.000155424
4.90233e-06
-4.40186e-06
0.000154918
5.44414e-06
-4.94414e-06
0.000154482
5.19475e-06
-4.75702e-06
0.000154318
4.94875e-06
-4.49008e-06
0.000154447
5.08306e-06
-3.96448e-06
0.000154809
5.44021e-06
-3.35733e-06
0.000155533
5.2645e-06
-2.86916e-06
0.000156381
4.60782e-06
-2.26702e-06
0.000157425
3.3394e-06
-1.82354e-06
0.00015852
1.86027e-06
-1.2835e-06
0.000159464
6.65374e-08
-2.54049e-07
0.000160401
-1.46577e-06
8.80077e-07
0.000161274
-2.35029e-06
1.8963e-06
0.000162387
-2.348e-06
2.22568e-06
0.000163754
-1.6548e-06
1.68358e-06
0.000165358
-7.46047e-07
6.59182e-07
0.000166798
-4.93797e-07
-2.59382e-07
0.000167617
-5.29658e-07
-6.43752e-07
0.000167819
-4.19598e-07
-1.12093e-06
0.000167509
3.22864e-07
-1.85088e-06
0.000167035
1.68942e-06
-2.97204e-06
0.000166364
2.51514e-06
-3.61444e-06
0.00016545
2.15163e-06
-2.35105e-06
0.000164233
3.07862e-07
7.95509e-07
0.000162683
-1.78204e-06
5.03995e-06
0.000161282
-2.75293e-06
8.40978e-06
0.000160491
-2.09688e-06
9.39192e-06
0.000160505
-4.0065e-07
8.0437e-06
0.000160957
1.14593e-06
5.13401e-06
0.000161487
2.80601e-06
2.17171e-06
0.00016196
4.78519e-06
-8.52682e-07
0.000162288
6.8169e-06
-3.26386e-06
0.000162212
7.3944e-06
-4.36871e-06
0.000161657
6.41523e-06
-3.78031e-06
0.000160766
4.1523e-06
-2.07474e-06
0.000160088
2.16911e-06
-3.56424e-07
0.000159915
1.39109e-06
5.62429e-07
0.000160317
1.97947e-06
3.09072e-07
0.000161208
3.49273e-06
-1.20761e-06
4.61257e-06
-2.74054e-06
0.000182788
5.21823e-06
-3.6233e-06
0.000183503
4.61994e-06
-4.10532e-06
0.00018319
2.64922e-06
-2.94408e-06
0.000182241
-1.25593e-07
-1.03059e-06
0.000181326
-2.21416e-06
3.28775e-07
0.000180829
-3.10499e-06
8.23319e-07
0.000180636
-2.65206e-06
-4.1737e-08
0.000180293
-1.29626e-06
-1.18617e-06
0.00017943
6.55676e-07
-2.31223e-06
0.000178211
2.91474e-06
-3.25276e-06
0.000176831
4.80909e-06
-4.1417e-06
0.000175547
5.84142e-06
-5.10008e-06
0.000174418
5.71408e-06
-5.05166e-06
0.000173631
5.40364e-06
-4.69316e-06
0.000173339
5.64264e-06
-4.02901e-06
0.000173336
6.33891e-06
-3.32023e-06
0.000173822
6.48309e-06
-2.88915e-06
0.000174604
5.75266e-06
-2.37042e-06
0.000175679
4.15517e-06
-2.13485e-06
0.000177029
2.36194e-06
-2.01981e-06
0.000178176
6.13749e-07
-1.44271e-06
0.000179195
-9.43712e-07
-1.3378e-07
0.000179944
-1.76887e-06
1.4484e-06
0.000180751
-1.84842e-06
2.85258e-06
0.000181959
-1.41698e-06
3.30369e-06
0.000183782
-8.28438e-07
2.85664e-06
0.00018606
-1.27035e-06
2.08434e-06
0.000188017
-2.03489e-06
1.68122e-06
0.000189294
-2.45485e-06
1.14834e-06
0.000189806
-2.31593e-06
2.93301e-07
0.000190095
-9.67128e-07
-1.52973e-06
0.000190244
6.25947e-07
-4.19172e-06
0.000190013
1.34757e-06
-5.3567e-06
0.000189388
4.06762e-07
-4.10756e-06
0.000188106
-1.67194e-06
4.89309e-07
0.000186386
-3.4722e-06
6.05782e-06
0.000184522
-3.60858e-06
9.75418e-06
0.000183069
-2.63416e-06
1.06864e-05
0.000182293
-1.35959e-06
8.67901e-06
0.000182167
1.47137e-07
5.47658e-06
0.000182524
2.04072e-06
2.08207e-06
0.000183055
4.59915e-06
-9.55919e-07
0.000183115
6.36889e-06
-2.96409e-06
0.000182364
6.84563e-06
-3.28549e-06
0.000180944
5.40212e-06
-2.20322e-06
0.000179563
3.23512e-06
-5.58839e-07
0.000178834
1.37573e-06
7.80596e-07
0.000178872
7.8341e-07
1.32381e-06
0.000179884
1.85514e-06
2.85748e-07
4.11888e-06
-2.01052e-06
0.000201188
4.50397e-06
-2.5885e-06
0.000203024
5.17333e-06
-4.33552e-06
0.000203818
4.07874e-06
-4.44627e-06
0.00020336
1.22177e-06
-3.12694e-06
0.000202429
-1.75193e-06
-1.52789e-06
0.00020198
-3.78184e-06
-2.17897e-07
0.000202416
-3.95247e-06
-4.63248e-07
0.00020322
-2.29274e-06
-1.53923e-06
0.000203321
5.85504e-07
-2.73323e-06
0.000202536
3.5778e-06
-3.52645e-06
0.000201074
5.58475e-06
-4.03499e-06
0.000199396
6.62013e-06
-5.3159e-06
0.000197729
6.18546e-06
-5.63557e-06
0.000196156
5.40688e-06
-5.22381e-06
0.000195084
5.47934e-06
-4.30686e-06
0.000194327
6.52145e-06
-3.39786e-06
0.000194083
7.37163e-06
-3.17407e-06
0.000194326
6.93122e-06
-2.85351e-06
0.000194942
5.04515e-06
-2.77153e-06
0.000196166
2.58194e-06
-2.93879e-06
0.000197496
4.23142e-07
-3.26887e-06
0.000198819
-1.13386e-06
-2.9092e-06
0.000199785
-1.62324e-06
-1.53789e-06
0.000200346
-1.09506e-06
5.62757e-07
0.000200941
-2.14303e-07
2.46929e-06
0.000202122
5.07782e-07
3.35673e-06
0.000204275
-5.95238e-07
3.60278e-06
0.000206795
-2.73981e-06
4.0266e-06
0.000209075
-4.27038e-06
3.98037e-06
0.000210497
-4.88578e-06
3.45294e-06
0.000211429
-4.07379e-06
1.85397e-06
0.000212276
-2.37264e-06
-1.71141e-06
0.000212755
-9.80886e-07
-5.16573e-06
0.000212761
-8.78364e-07
-6.84136e-06
0.000212152
-1.9536e-06
-4.49793e-06
0.000211336
-4.0223e-06
1.58723e-06
0.000210187
-4.6015e-06
7.33059e-06
0.000208607
-4.07774e-06
1.0972e-05
0.000206781
-3.0289e-06
1.08271e-05
0.000205008
-1.39714e-06
8.25999e-06
0.000203704
3.85273e-07
4.84262e-06
0.000203117
2.85144e-06
1.85613e-06
0.000202716
5.23908e-06
-7.16926e-07
0.000201783
7.17291e-06
-1.95243e-06
0.000200144
7.24247e-06
-1.77128e-06
0.000198329
5.69209e-06
-6.57125e-07
0.000197178
3.16516e-06
6.09647e-07
0.000196852
9.94777e-07
1.7202e-06
0.000197558
3.15349e-07
1.78934e-06
2.30683e-06
-2.09296e-07
0.00021897
3.3098e-06
-5.75732e-07
0.000221036
4.92035e-06
-2.88785e-06
0.000222862
4.61767e-06
-4.18123e-06
0.000223651
1.97668e-06
-3.94988e-06
0.00022346
-1.42463e-06
-3.01155e-06
0.000223037
-4.24318e-06
-1.41794e-06
0.000223373
-5.39737e-06
-8.90518e-07
0.00022479
-4.13865e-06
-1.75766e-06
0.000226076
-2.4068e-07
-3.34273e-06
0.000226528
4.56317e-06
-4.53866e-06
0.000226023
7.69255e-06
-4.39323e-06
0.000224876
8.89749e-06
-5.33107e-06
0.000223471
7.76892e-06
-6.08332e-06
0.000221606
5.94192e-06
-5.91032e-06
0.000219744
5.32822e-06
-4.78372e-06
0.000217971
6.4224e-06
-3.41473e-06
0.000216643
8.04885e-06
-3.39411e-06
0.000216116
8.19832e-06
-3.63217e-06
0.000216089
6.23614e-06
-3.90733e-06
0.000216797
2.92307e-06
-3.89154e-06
0.00021783
-3.56815e-07
-4.29028e-06
0.000219107
-2.55944e-06
-4.99872e-06
0.000220361
-3.07981e-06
-5.02003e-06
0.000221158
-1.68827e-06
-3.65941e-06
0.000221499
4.67081e-07
-1.22069e-06
0.000221904
1.97002e-06
1.00207e-06
0.000223266
8.77661e-07
2.39311e-06
0.000225453
-2.63264e-06
4.20222e-06
0.000228125
-5.9306e-06
5.49347e-06
0.00023039
-7.77128e-06
5.8246e-06
0.000231929
-7.37528e-06
5.05638e-06
0.000233249
-5.49955e-06
1.64496e-06
0.000234204
-3.82252e-06
-2.64749e-06
0.000234576
-3.18695e-06
-6.47332e-06
0.000233941
-3.10468e-06
-6.81586e-06
0.000233262
-4.57563e-06
-2.18966e-06
0.00023309
-5.6053e-06
4.33481e-06
0.00023292
-5.47652e-06
9.87936e-06
0.000232055
-4.70178e-06
1.17979e-05
0.00023002
-2.68534e-06
1.027e-05
0.000227207
-2.62048e-07
7.12183e-06
0.000224821
2.22176e-06
4.32468e-06
0.00022326
4.33594e-06
1.90853e-06
0.000221877
6.88766e-06
1.30076e-09
0.000220136
8.46471e-06
-8.91847e-07
0.000218104
8.33514e-06
-6.95836e-07
0.000216552
6.39213e-06
7.92936e-08
0.000215875
3.2737e-06
1.35765e-06
0.000216172
4.73615e-07
2.49224e-06
8.50703e-07
1.64507e-06
0.00023812
3.06418e-06
8.46067e-07
0.000239472
5.01165e-06
-1.26351e-06
0.000241387
4.97461e-06
-2.80738e-06
0.000243303
2.03897e-06
-3.0931e-06
0.000244771
-2.25504e-06
-2.93331e-06
0.000245576
-5.87225e-06
-1.62248e-06
0.000246177
-7.96995e-06
-2.22061e-07
0.000247555
-7.67411e-06
-2.7667e-07
0.000249085
-3.31258e-06
-2.14753e-06
0.000250115
3.84582e-06
-4.86062e-06
0.000250612
9.60096e-06
-5.07864e-06
0.00025059
1.22916e-05
-5.2041e-06
0.000250253
1.11138e-05
-5.92771e-06
0.000248947
8.2701e-06
-6.34432e-06
0.00024678
6.62271e-06
-5.52657e-06
0.000244144
7.29031e-06
-3.51602e-06
0.000241697
9.31369e-06
-3.11572e-06
0.000240407
9.90553e-06
-3.8032e-06
0.000240044
7.86015e-06
-4.9365e-06
0.000240529
3.75377e-06
-5.15622e-06
0.00024123
-8.85929e-07
-4.85592e-06
0.000241929
-4.26573e-06
-5.54123e-06
0.000242784
-5.43143e-06
-6.73778e-06
0.0002435
-3.76827e-06
-7.146e-06
0.000243783
-2.54742e-07
-5.39072e-06
0.000243687
2.88308e-06
-2.59506e-06
0.000244164
2.4254e-06
-5.04802e-07
0.000245428
-1.94304e-06
2.26475e-06
0.000247562
-7.239e-06
5.12579e-06
0.000250073
-1.10719e-05
6.72348e-06
0.000252202
-1.14845e-05
7.08463e-06
0.000254089
-9.11918e-06
4.27769e-06
0.000255645
-6.73344e-06
-7.9748e-08
0.000256629
-5.90098e-06
-4.69314e-06
0.000255987
-4.98443e-06
-7.04531e-06
0.000254374
-5.41799e-06
-3.86344e-06
0.000253527
-6.4744e-06
2.38816e-06
0.000253972
-6.65686e-06
8.75025e-06
0.000254889
-6.48179e-06
1.22624e-05
0.000254692
-4.65247e-06
1.18439e-05
0.000252356
-1.38342e-06
8.86774e-06
0.000248981
1.84302e-06
6.18839e-06
0.000246126
3.78755e-06
4.08563e-06
0.000243937
6.42848e-06
2.01097e-06
0.000241964
8.98211e-06
3.24855e-07
0.00023994
1.0149e-05
-5.67583e-07
0.000238177
9.59672e-06
-5.61762e-07
0.00023707
6.87909e-06
4.28329e-07
0.000236845