/*--------------------------------*- C++ -*----------------------------------*\
| =========                 |                                                 |
| \\      /  F ield         | OpenFOAM: The Open Source CFD Toolbox           |
|  \\    /   O peration     | Version:  2.3.0                                 |
|   \\  /    A nd           | Web:      www.OpenFOAM.org                      |
|    \\/     M anipulation  |                                                 |
\*---------------------------------------------------------------------------*/
FoamFile
{
    version     2.0;
    format      ascii;
    class       surfaceScalarField;
    location    "200";
    object      phi_0;
}
// * * * * * * * * * * * * * * * * * * * * * * * * * * * * * * * * * * * * * //

dimensions      [0 3 -1 0 0 0 0];

internalField   nonuniform List<scalar> 
263700
(
3.01854e-06
1.19302e-07
-1.898e-07
3.02416e-06
1.23219e-07
-1.89835e-07
3.01876e-06
1.27647e-07
-1.84225e-07
3.01759e-06
1.04495e-07
-1.74078e-07
3.02126e-06
6.7693e-08
-1.60321e-07
3.02653e-06
3.38467e-08
-1.56594e-07
3.04329e-06
-8.69809e-09
-1.57019e-07
3.06164e-06
-3.57576e-08
-1.54789e-07
3.07796e-06
-5.07117e-08
-1.50572e-07
3.08884e-06
-5.66611e-08
-1.35629e-07
3.08857e-06
-4.94228e-08
-1.17723e-07
3.0891e-06
-4.90617e-08
-1.02015e-07
3.08292e-06
-4.11114e-08
-8.27322e-08
3.07246e-06
-3.46303e-08
-6.54011e-08
3.05279e-06
-2.49423e-08
-4.80341e-08
3.01984e-06
-8.56085e-09
-3.79331e-08
2.98477e-06
2.13972e-09
-3.98502e-08
2.94521e-06
1.82124e-08
-4.66872e-08
2.91017e-06
2.2735e-08
-5.25063e-08
2.8764e-06
2.57362e-08
-4.90733e-08
2.84354e-06
2.62288e-08
-4.16095e-08
2.81888e-06
1.95215e-08
-3.93674e-08
2.79541e-06
1.94025e-08
-4.09803e-08
2.77393e-06
1.78425e-08
-4.64732e-08
2.75881e-06
1.14114e-08
-5.34025e-08
2.74644e-06
4.77932e-09
-5.16629e-08
2.73599e-06
-4.11031e-09
-4.57289e-08
2.72784e-06
-1.2741e-08
-3.98434e-08
2.71886e-06
-1.34591e-08
-4.05428e-08
2.71202e-06
-2.15527e-09
-5.37321e-08
2.71414e-06
1.80983e-08
-7.73809e-08
2.72396e-06
2.81609e-08
-7.54964e-08
2.73154e-06
3.74836e-08
-4.88901e-08
2.74652e-06
2.56099e-08
-1.60672e-08
2.75488e-06
1.9503e-08
2.3788e-08
2.76325e-06
1.95556e-08
3.36025e-08
2.78565e-06
2.40671e-08
4.01399e-09
2.80166e-06
4.02401e-08
-2.6588e-08
2.81075e-06
5.76879e-08
-6.97088e-08
2.82163e-06
9.05054e-08
-1.39497e-07
2.84975e-06
1.21964e-07
-2.16661e-07
2.88657e-06
1.45665e-07
-2.46755e-07
2.92594e-06
1.37127e-07
-2.12378e-07
2.9399e-06
1.34315e-07
-1.44788e-07
2.94001e-06
1.11406e-07
-8.56591e-08
2.94588e-06
8.33201e-08
-6.97936e-08
2.95127e-06
7.46588e-08
-8.44269e-08
2.96927e-06
6.28776e-08
-1.15796e-07
2.99414e-06
7.3388e-08
-1.53453e-07
9.73094e-08
-1.77833e-07
9.99566e-06
4.06031e-07
-5.59322e-07
1.00362e-05
4.03554e-07
-5.50251e-07
1.00633e-05
3.93602e-07
-5.31287e-07
1.0099e-05
3.06221e-07
-4.97261e-07
1.01359e-05
1.93848e-07
-4.64885e-07
1.01712e-05
9.19187e-08
-4.46882e-07
1.02138e-05
-2.13031e-08
-4.29187e-07
1.02469e-05
-8.94548e-08
-4.064e-07
1.02675e-05
-1.25704e-07
-3.81294e-07
1.02703e-05
-1.3721e-07
-3.37096e-07
1.02528e-05
-1.17265e-07
-2.95921e-07
1.02305e-05
-1.10764e-07
-2.58036e-07
1.01917e-05
-8.55631e-08
-2.14742e-07
1.01434e-05
-6.54484e-08
-1.79741e-07
1.00764e-05
-3.87297e-08
-1.43669e-07
9.99035e-06
3.71834e-10
-1.22585e-07
9.9009e-06
2.8679e-08
-1.24794e-07
9.80432e-06
6.56713e-08
-1.30284e-07
9.71272e-06
7.57658e-08
-1.36931e-07
9.62053e-06
8.58068e-08
-1.33966e-07
9.52936e-06
8.84233e-08
-1.33633e-07
9.44684e-06
7.67344e-08
-1.40938e-07
9.36554e-06
7.66932e-08
-1.51062e-07
9.28907e-06
7.3435e-08
-1.67266e-07
9.22228e-06
5.76098e-08
-1.785e-07
9.16044e-06
4.22739e-08
-1.74121e-07
9.10423e-06
2.29118e-08
-1.66755e-07
9.05578e-06
8.83564e-09
-1.62934e-07
9.01393e-06
2.00812e-08
-1.75624e-07
8.98615e-06
6.93429e-08
-2.12807e-07
8.98172e-06
1.37455e-07
-2.58426e-07
8.99562e-06
1.72149e-07
-2.53578e-07
9.01482e-06
1.96222e-07
-2.16371e-07
9.0513e-06
1.7768e-07
-1.76959e-07
9.08336e-06
1.72346e-07
-1.45281e-07
9.12264e-06
1.72252e-07
-1.58287e-07
9.17959e-06
1.76021e-07
-2.13136e-07
9.22901e-06
2.17021e-07
-2.85834e-07
9.27523e-06
2.76521e-07
-3.7813e-07
9.32932e-06
3.69792e-07
-4.91103e-07
9.40924e-06
4.51276e-07
-5.89673e-07
9.49827e-06
5.11703e-07
-6.07562e-07
9.58732e-06
4.90294e-07
-5.40526e-07
9.64022e-06
4.67088e-07
-4.31629e-07
9.681e-06
3.90527e-07
-3.59414e-07
9.72585e-06
3.08943e-07
-3.48404e-07
9.77145e-06
2.8343e-07
-3.91004e-07
9.8336e-06
2.77253e-07
-4.61818e-07
9.89928e-06
3.0523e-07
-5.17313e-07
3.62894e-07
-5.49902e-07
1.85052e-05
8.77683e-07
-1.00246e-06
1.86054e-05
8.54891e-07
-9.78428e-07
1.86896e-05
8.10628e-07
-9.37411e-07
1.87789e-05
6.27801e-07
-8.69678e-07
1.88622e-05
4.12063e-07
-8.09231e-07
1.89327e-05
2.21182e-07
-7.63363e-07
1.89987e-05
1.62153e-08
-7.14407e-07
1.90441e-05
-1.08261e-07
-6.61305e-07
1.90658e-05
-1.74719e-07
-6.1222e-07
1.90595e-05
-1.98466e-07
-5.39286e-07
1.90272e-05
-1.69167e-07
-4.77769e-07
1.89861e-05
-1.5513e-07
-4.24417e-07
1.89231e-05
-1.10918e-07
-3.62262e-07
1.88511e-05
-7.55297e-08
-3.14427e-07
1.8757e-05
-2.83691e-08
-2.63106e-07
1.86404e-05
3.44399e-08
-2.25883e-07
1.85199e-05
7.9909e-08
-2.20339e-07
1.83881e-05
1.36553e-07
-2.16771e-07
1.82546e-05
1.49561e-07
-2.18625e-07
1.81126e-05
1.64666e-07
-2.13247e-07
1.79615e-05
1.71614e-07
-2.19585e-07
1.7807e-05
1.59266e-07
-2.34621e-07
1.7645e-05
1.63215e-07
-2.55201e-07
1.74811e-05
1.64648e-07
-2.84199e-07
1.7322e-05
1.43726e-07
-3.03026e-07
1.71655e-05
1.22889e-07
-2.99771e-07
1.70175e-05
9.3434e-08
-2.93663e-07
1.6885e-05
7.72623e-08
-2.94397e-07
1.67694e-05
1.12508e-07
-3.22388e-07
1.6684e-05
2.19431e-07
-3.84045e-07
1.66425e-05
3.60172e-07
-4.63142e-07
1.66364e-05
4.43574e-07
-4.83175e-07
1.66481e-05
4.96345e-07
-4.60407e-07
1.66921e-05
4.85483e-07
-4.40933e-07
1.67418e-05
4.98186e-07
-4.31228e-07
1.68051e-05
5.00417e-07
-4.6529e-07
1.68933e-05
4.98673e-07
-5.37142e-07
1.69796e-05
5.62164e-07
-6.20887e-07
1.70682e-05
6.65213e-07
-7.28199e-07
1.71728e-05
8.14692e-07
-8.47057e-07
1.73144e-05
9.4744e-07
-9.57145e-07
1.74731e-05
1.04861e-06
-9.78188e-07
1.76349e-05
1.00764e-06
-9.00583e-07
1.77576e-05
9.53671e-07
-7.79888e-07
1.78634e-05
8.11546e-07
-7.15409e-07
1.79653e-05
6.78532e-07
-7.18679e-07
1.80642e-05
6.55627e-07
-7.93498e-07
1.81787e-05
6.74627e-07
-8.9595e-07
1.82967e-05
7.24532e-07
-9.62932e-07
8.19403e-07
-9.99679e-07
2.86162e-05
1.5959e-06
-1.56547e-06
2.87892e-05
1.54664e-06
-1.52996e-06
2.89416e-05
1.46179e-06
-1.47344e-06
2.9091e-05
1.16265e-06
-1.37035e-06
2.9227e-05
8.17482e-07
-1.27479e-06
2.93385e-05
5.20285e-07
-1.19607e-06
2.94323e-05
1.97809e-07
-1.10261e-06
2.94972e-05
-1.25913e-08
-9.99808e-07
2.95306e-05
-1.30533e-07
-9.12852e-07
2.9528e-05
-1.86907e-07
-7.9657e-07
2.94964e-05
-1.68954e-07
-6.99223e-07
2.94558e-05
-1.59278e-07
-6.25247e-07
2.93905e-05
-1.05624e-07
-5.38399e-07
2.93203e-05
-6.24734e-08
-4.75053e-07
2.92302e-05
8.29737e-09
-4.13528e-07
2.91181e-05
9.82758e-08
-3.59446e-07
2.9005e-05
1.60261e-07
-3.41962e-07
2.88808e-05
2.32813e-07
-3.19449e-07
2.8748e-05
2.4105e-07
-3.03159e-07
2.85945e-05
2.4947e-07
-2.76072e-07
2.84149e-05
2.55335e-07
-2.73774e-07
2.82052e-05
2.47666e-07
-2.91631e-07
2.79617e-05
2.60817e-07
-3.18512e-07
2.76918e-05
2.78977e-07
-3.6347e-07
2.74032e-05
2.64464e-07
-3.96704e-07
2.70975e-05
2.4663e-07
-3.96909e-07
2.67906e-05
2.0641e-07
-3.89099e-07
2.65018e-05
1.80417e-07
-3.86161e-07
2.62383e-05
2.39969e-07
-4.23517e-07
2.6023e-05
4.08727e-07
-5.01128e-07
2.58817e-05
6.2897e-07
-6.08547e-07
2.5803e-05
7.85196e-07
-6.64176e-07
2.57601e-05
8.87362e-07
-6.60914e-07
2.57727e-05
9.03781e-07
-6.6593e-07
2.58124e-05
9.73155e-07
-7.02136e-07
2.58786e-05
1.0226e-06
-7.91366e-07
2.59831e-05
1.03908e-06
-9.04464e-07
2.61001e-05
1.1198e-06
-1.00528e-06
2.62321e-05
1.24369e-06
-1.11573e-06
2.63947e-05
1.40919e-06
-1.21709e-06
2.66152e-05
1.55043e-06
-1.31281e-06
2.68684e-05
1.66694e-06
-1.3223e-06
2.71319e-05
1.57856e-06
-1.22016e-06
2.73548e-05
1.47738e-06
-1.08829e-06
2.75524e-05
1.28219e-06
-1.047e-06
2.77352e-05
1.12553e-06
-1.08879e-06
2.79068e-05
1.15528e-06
-1.22765e-06
2.80889e-05
1.25503e-06
-1.39664e-06
2.82721e-05
1.35755e-06
-1.50082e-06
1.51342e-06
-1.55943e-06
4.0361e-05
2.57461e-06
-2.23576e-06
4.06168e-05
2.52141e-06
-2.21291e-06
4.08474e-05
2.42179e-06
-2.17598e-06
4.10585e-05
2.02161e-06
-2.06827e-06
4.12434e-05
1.53461e-06
-1.94879e-06
4.1392e-05
1.12499e-06
-1.85099e-06
4.15069e-05
6.66636e-07
-1.71284e-06
4.15865e-05
3.27647e-07
-1.53597e-06
4.1632e-05
1.22346e-07
-1.38535e-06
4.16377e-05
9.20695e-10
-1.19754e-06
4.16167e-05
-3.12418e-08
-1.03056e-06
4.15896e-05
-5.54523e-08
-9.11813e-07
4.15365e-05
-1.99883e-08
-7.76702e-07
4.14851e-05
-1.00847e-09
-6.73794e-07
4.14205e-05
8.01934e-08
-5.94263e-07
4.13425e-05
1.96496e-07
-5.22809e-07
4.12752e-05
2.79642e-07
-4.9977e-07
4.12089e-05
3.69385e-07
-4.55176e-07
4.11438e-05
3.65493e-07
-4.1118e-07
4.10547e-05
3.51676e-07
-3.43318e-07
4.09332e-05
3.34284e-07
-3.0217e-07
4.07578e-05
3.25253e-07
-3.08752e-07
4.05097e-05
3.4562e-07
-3.28846e-07
4.01906e-05
3.88385e-07
-3.79809e-07
3.98011e-05
3.95591e-07
-4.28561e-07
3.93386e-05
3.99432e-07
-4.34244e-07
3.88248e-05
3.65118e-07
-4.27981e-07
3.83015e-05
3.22391e-07
-4.10682e-07
3.77943e-05
3.92656e-07
-4.42687e-07
3.73389e-05
6.20069e-07
-5.2776e-07
3.69867e-05
8.96177e-07
-6.36614e-07
3.67363e-05
1.12056e-06
-7.13767e-07
3.65471e-05
1.28154e-06
-7.22986e-07
3.64432e-05
1.31643e-06
-7.23386e-07
3.64053e-05
1.46074e-06
-7.88305e-07
3.64254e-05
1.62869e-06
-9.6816e-07
3.65064e-05
1.76149e-06
-1.20159e-06
3.66236e-05
1.93368e-06
-1.40152e-06
3.6778e-05
2.10747e-06
-1.57426e-06
3.69828e-05
2.25431e-06
-1.66397e-06
3.72787e-05
2.29616e-06
-1.68778e-06
3.7635e-05
2.3249e-06
-1.61693e-06
3.80166e-05
2.08956e-06
-1.42224e-06
3.83659e-05
1.8562e-06
-1.22216e-06
3.86855e-05
1.57679e-06
-1.17759e-06
3.89872e-05
1.39649e-06
-1.2568e-06
3.92746e-05
1.52878e-06
-1.48803e-06
3.95639e-05
1.82484e-06
-1.79995e-06
3.98452e-05
2.08593e-06
-2.02373e-06
2.39898e-06
-2.17526e-06
5.36404e-05
3.55084e-06
-2.79491e-06
5.40231e-05
3.6163e-06
-2.87091e-06
5.43738e-05
3.58237e-06
-2.91941e-06
5.46774e-05
3.17869e-06
-2.89479e-06
5.49205e-05
2.60703e-06
-2.81499e-06
5.51026e-05
2.12497e-06
-2.75733e-06
5.52165e-05
1.56464e-06
-2.62757e-06
5.52805e-05
1.06888e-06
-2.37988e-06
5.53118e-05
7.28162e-07
-2.14675e-06
5.53016e-05
5.03693e-07
-1.85988e-06
5.52783e-05
3.71483e-07
-1.58201e-06
5.52593e-05
2.78629e-07
-1.38943e-06
5.52098e-05
2.70458e-07
-1.17929e-06
5.51666e-05
2.15056e-07
-9.91686e-07
5.51127e-05
2.60934e-07
-8.55456e-07
5.50571e-05
3.67469e-07
-7.32594e-07
5.50344e-05
4.54347e-07
-6.94179e-07
5.50322e-05
5.67006e-07
-6.31562e-07
5.50673e-05
5.45608e-07
-5.52733e-07
5.51008e-05
5.06692e-07
-4.4425e-07
5.51225e-05
4.49019e-07
-3.42326e-07
5.51079e-05
4.16736e-07
-3.15649e-07
5.50102e-05
4.24971e-07
-3.15607e-07
5.48116e-05
4.75527e-07
-3.47464e-07
5.44908e-05
4.98855e-07
-3.92299e-07
5.40194e-05
5.24203e-07
-3.8249e-07
5.33982e-05
5.24584e-07
-3.78583e-07
5.26708e-05
4.99677e-07
-3.55548e-07
5.18936e-05
5.71818e-07
-3.62745e-07
5.11212e-05
8.67847e-07
-4.5623e-07
5.04368e-05
1.18115e-06
-5.48978e-07
4.98784e-05
1.43256e-06
-6.12513e-07
4.94033e-05
1.65094e-06
-6.36719e-07
4.90315e-05
1.68287e-06
-6.26623e-07
4.87632e-05
1.85334e-06
-6.61459e-07
4.86122e-05
2.12063e-06
-8.66601e-07
4.85738e-05
2.4376e-06
-1.2143e-06
4.86169e-05
2.84502e-06
-1.58387e-06
4.87391e-05
3.24852e-06
-1.96685e-06
4.89348e-05
3.523e-06
-2.20112e-06
4.92613e-05
3.41749e-06
-2.18642e-06
4.96892e-05
3.1993e-06
-1.96702e-06
5.01624e-05
2.63076e-06
-1.57423e-06
5.06212e-05
2.06407e-06
-1.18698e-06
5.10485e-05
1.54601e-06
-1.03896e-06
5.14663e-05
1.21089e-06
-1.06825e-06
5.18973e-05
1.32135e-06
-1.28906e-06
5.2353e-05
1.83904e-06
-1.72625e-06
5.281e-05
2.39195e-06
-2.14976e-06
3.06234e-06
-2.52823e-06
6.79473e-05
3.75065e-06
-2.71634e-06
6.85692e-05
4.23993e-06
-3.08024e-06
6.91542e-05
4.44689e-06
-3.32373e-06
6.96698e-05
4.21566e-06
-3.49932e-06
7.00668e-05
3.74205e-06
-3.58328e-06
7.03562e-05
3.33186e-06
-3.68757e-06
7.04997e-05
2.83599e-06
-3.72283e-06
7.05253e-05
2.27586e-06
-3.51023e-06
7.05073e-05
1.77921e-06
-3.2289e-06
7.04355e-05
1.41933e-06
-2.85203e-06
7.037e-05
1.12675e-06
-2.42858e-06
7.0349e-05
9.09088e-07
-2.1277e-06
7.02994e-05
8.59597e-07
-1.8474e-06
7.02521e-05
7.17554e-07
-1.55683e-06
7.01804e-05
6.94484e-07
-1.33296e-06
7.00908e-05
7.44127e-07
-1.11273e-06
7.0052e-05
7.55543e-07
-9.9235e-07
7.00476e-05
8.52414e-07
-8.86149e-07
7.01209e-05
7.85468e-07
-7.42088e-07
7.02411e-05
7.09e-07
-5.76439e-07
7.03848e-05
6.25458e-07
-4.18535e-07
7.05466e-05
5.89825e-07
-3.53772e-07
7.06686e-05
6.01518e-07
-3.43674e-07
7.07178e-05
6.40318e-07
-3.48741e-07
7.06599e-05
6.44612e-07
-3.68307e-07
7.04364e-05
6.28291e-07
-2.88124e-07
7.00136e-05
5.89277e-07
-2.14515e-07
6.93766e-05
6.03194e-07
-1.83053e-07
6.85661e-05
6.87197e-07
-1.49057e-07
6.76426e-05
1.05499e-06
-2.27027e-07
6.66879e-05
1.45955e-06
-3.27186e-07
6.57876e-05
1.72208e-06
-3.38943e-07
6.49406e-05
1.9941e-06
-3.55952e-07
6.41679e-05
2.05256e-06
-3.88235e-07
6.34712e-05
2.24671e-06
-4.47246e-07
6.29161e-05
2.53959e-06
-6.56545e-07
6.25379e-05
2.95195e-06
-1.0272e-06
6.23231e-05
3.58576e-06
-1.45934e-06
6.22912e-05
4.34635e-06
-2.0261e-06
6.23994e-05
5.07115e-06
-2.57022e-06
6.26938e-05
5.04649e-06
-2.72558e-06
6.31464e-05
4.56991e-06
-2.44227e-06
6.36611e-05
3.5385e-06
-1.83256e-06
6.41727e-05
2.43261e-06
-1.17235e-06
6.46268e-05
1.46936e-06
-8.32567e-07
6.50342e-05
7.99329e-07
-7.53264e-07
6.54669e-05
5.59969e-07
-7.99351e-07
6.59933e-05
9.52614e-07
-1.09869e-06
6.6612e-05
1.61555e-06
-1.53914e-06
2.66919e-06
-2.09479e-06
8.25612e-05
2.50268e-06
-1.72995e-06
8.34251e-05
3.60439e-06
-2.40664e-06
8.43093e-05
4.27577e-06
-2.94096e-06
8.5179e-05
4.36734e-06
-3.38792e-06
8.5909e-05
4.18904e-06
-3.71974e-06
8.65001e-05
4.05831e-06
-4.07651e-06
8.68742e-05
3.89974e-06
-4.46408e-06
8.69762e-05
3.61628e-06
-4.54993e-06
8.69475e-05
3.14342e-06
-4.40297e-06
8.68123e-05
2.69904e-06
-4.05308e-06
8.66586e-05
2.229e-06
-3.52693e-06
8.66118e-05
1.78737e-06
-3.07276e-06
8.6593e-05
1.65966e-06
-2.72212e-06
8.65929e-05
1.46732e-06
-2.35946e-06
8.65644e-05
1.39336e-06
-2.05692e-06
8.64658e-05
1.41616e-06
-1.7727e-06
8.63802e-05
1.303e-06
-1.53468e-06
8.63094e-05
1.28079e-06
-1.33201e-06
8.63151e-05
1.07274e-06
-1.07288e-06
8.64128e-05
8.60055e-07
-7.63663e-07
8.65768e-05
7.15481e-07
-5.08776e-07
8.68094e-05
7.19136e-07
-4.0661e-07
8.70525e-05
8.53856e-07
-4.37917e-07
8.72545e-05
1.00074e-06
-4.86995e-07
8.73926e-05
1.06259e-06
-5.29757e-07
8.74037e-05
1.03177e-06
-3.99912e-07
8.72809e-05
8.04476e-07
-1.39177e-07
8.69951e-05
6.70307e-07
3.94281e-08
8.65313e-05
6.30574e-07
2.25367e-07
8.59242e-05
9.4373e-07
2.51811e-07
8.5168e-05
1.46156e-06
1.46769e-07
8.429e-05
1.79131e-06
2.03084e-07
8.33147e-05
2.13312e-06
2.82136e-07
8.22925e-05
2.28635e-06
2.3754e-07
8.1206e-05
2.6746e-06
7.29855e-09
8.01375e-05
3.08266e-06
-3.91897e-07
7.91948e-05
3.53274e-06
-9.20466e-07
7.84367e-05
4.202e-06
-1.37171e-06
7.79893e-05
5.14602e-06
-1.94026e-06
7.78422e-05
6.44539e-06
-2.68769e-06
7.80049e-05
6.86125e-06
-3.11193e-06
7.84398e-05
6.35072e-06
-2.90039e-06
7.89818e-05
4.92757e-06
-2.15819e-06
7.95378e-05
3.29513e-06
-1.24209e-06
8.00106e-05
1.84751e-06
-7.14779e-07
8.03164e-05
8.73415e-07
-6.29535e-07
8.05016e-05
1.94586e-07
-6.15988e-07
8.07332e-05
1.76446e-08
-6.43252e-07
8.11272e-05
1.84339e-07
-7.52306e-07
1.04367e-06
-1.02701e-06
9.79038e-05
6.00382e-07
-5.77827e-07
9.85187e-05
1.78945e-06
-1.09629e-06
9.93719e-05
2.8248e-06
-1.74737e-06
0.000100421
3.23181e-06
-2.42147e-06
0.000101472
3.32854e-06
-2.9683e-06
0.000102442
3.52769e-06
-3.50909e-06
0.000103256
3.81782e-06
-4.20508e-06
0.000103704
4.18019e-06
-4.76803e-06
0.000103865
4.20479e-06
-5.05646e-06
0.000103805
3.98533e-06
-5.01028e-06
0.000103603
3.51521e-06
-4.60926e-06
0.000103489
2.84417e-06
-4.06567e-06
0.000103494
2.52985e-06
-3.6168e-06
0.000103596
2.29311e-06
-3.20868e-06
0.000103737
2.19334e-06
-2.81964e-06
0.000103827
2.23617e-06
-2.51517e-06
0.000103875
2.05223e-06
-2.22331e-06
0.000103876
1.85904e-06
-1.93917e-06
0.000103874
1.40107e-06
-1.59362e-06
0.000103919
8.75853e-07
-1.07729e-06
0.000104041
4.55828e-07
-5.95182e-07
0.000104265
3.79534e-07
-3.58133e-07
0.000104555
6.80064e-07
-4.27612e-07
0.000104822
1.16125e-06
-6.54823e-07
0.00010503
1.50432e-06
-8.78728e-07
0.000105097
1.71921e-06
-9.17082e-07
0.000104995
1.49372e-06
-5.80864e-07
0.000104764
1.18377e-06
-2.15518e-07
0.000104418
9.02527e-07
2.17073e-07
0.000104083
8.94909e-07
5.96275e-07
0.00010377
1.23832e-06
7.27264e-07
0.00010339
1.42883e-06
1.03757e-06
0.000102863
1.63758e-06
1.4745e-06
0.000102205
1.73983e-06
1.70682e-06
0.000101345
2.38318e-06
1.52075e-06
0.000100257
3.30413e-06
7.04568e-07
9.90176e-05
4.07291e-06
-3.48131e-07
9.77307e-05
4.78256e-06
-1.20445e-06
9.66887e-05
5.60107e-06
-1.91553e-06
9.60885e-05
7.21112e-06
-2.82935e-06
9.59519e-05
8.2504e-06
-3.54614e-06
9.62333e-05
8.05539e-06
-3.47117e-06
9.67237e-05
6.46983e-06
-2.61036e-06
9.72824e-05
4.48382e-06
-1.37047e-06
9.78338e-05
2.59665e-06
-5.38607e-07
9.82138e-05
1.56391e-06
-4.81834e-07
9.82501e-05
9.66711e-07
-7.21941e-07
9.80341e-05
4.23118e-07
-8.70825e-07
9.77373e-05
-1.54539e-07
-7.75995e-07
-2.81292e-07
-4.42649e-07
0.000116261
8.53444e-08
-4.01233e-07
0.000115794
2.77202e-07
-6.58539e-08
0.000115809
9.26868e-07
-2.63531e-07
0.000116322
1.34963e-06
-9.29943e-07
0.000117175
1.45337e-06
-1.60187e-06
0.000118151
1.75621e-06
-2.25514e-06
0.000119167
2.28812e-06
-3.04043e-06
0.000119955
3.24794e-06
-3.87949e-06
0.000120418
4.13238e-06
-4.65002e-06
0.000120596
4.62657e-06
-5.12178e-06
0.000120507
4.5715e-06
-5.16762e-06
0.000120358
3.94475e-06
-4.8087e-06
0.000120321
3.45744e-06
-4.33126e-06
0.000120463
3.16279e-06
-3.91867e-06
0.000120741
3.07146e-06
-3.42475e-06
0.000121103
3.12894e-06
-3.03085e-06
0.0001215
2.8925e-06
-2.68123e-06
0.000121875
2.51651e-06
-2.31059e-06
0.000122227
1.75197e-06
-1.95906e-06
0.000122501
8.1511e-07
-1.34291e-06
0.000122756
-1.28802e-07
-5.96865e-07
0.000123057
-6.31415e-07
-6.97841e-08
0.000123449
-4.20584e-07
-2.4783e-08
0.000123879
3.51577e-07
-4.2132e-07
0.000124255
1.12844e-06
-9.59863e-07
0.000124487
1.78019e-06
-1.40584e-06
0.000124427
1.91173e-06
-1.38651e-06
0.000124098
1.7715e-06
-1.09031e-06
0.000123516
1.6567e-06
-7.67012e-07
0.000122863
1.65173e-06
-2.04835e-07
0.000122327
1.67709e-06
3.70886e-07
0.000121929
1.3797e-06
1.28548e-06
0.000121596
9.61322e-07
2.55467e-06
0.000121334
3.94228e-07
3.66284e-06
0.000121144
6.62315e-07
4.18773e-06
0.000120886
1.91443e-06
3.5575e-06
0.000120372
3.42126e-06
1.91691e-06
0.000119441
4.71993e-06
1.36909e-07
0.000118273
5.51574e-06
-1.23697e-06
0.000117353
7.04308e-06
-2.60129e-06
0.000116922
8.51699e-06
-3.91755e-06
0.000116949
8.94446e-06
-4.3298e-06
0.000117206
7.60142e-06
-3.56587e-06
0.000117508
5.4658e-06
-1.9932e-06
0.000117888
3.26512e-06
-5.60744e-07
0.000118379
2.15243e-06
-1.24724e-07
0.0001187
1.96437e-06
-4.90159e-07
0.000118634
1.93958e-06
-1.12165e-06
0.00011805
1.43299e-06
-1.50014e-06
4.89202e-07
-1.02281e-06
0.000138906
1.67521e-06
-1.49714e-06
0.000137581
5.73306e-07
-4.04921e-07
0.00013641
5.41041e-08
4.26676e-07
0.00013571
-2.22037e-07
5.04325e-07
0.000135575
-4.00521e-07
-3.92154e-08
0.000135823
-2.70028e-07
-8.30021e-07
0.000136312
2.06224e-07
-1.73488e-06
0.000136813
1.33458e-06
-2.60812e-06
0.000137146
2.89869e-06
-3.57697e-06
0.000137301
4.31967e-06
-4.41041e-06
0.000137264
5.03463e-06
-4.95015e-06
0.000137116
4.82918e-06
-5.01446e-06
0.000136998
4.37787e-06
-4.65598e-06
0.000137095
4.09992e-06
-4.32159e-06
0.000137377
4.10924e-06
-3.78979e-06
0.00013785
4.23539e-06
-3.26685e-06
0.000138504
3.9473e-06
-2.80872e-06
0.000139212
3.38009e-06
-2.27045e-06
0.000140036
2.29243e-06
-1.84273e-06
0.000140804
9.65598e-07
-1.19632e-06
0.000141494
-5.64644e-07
-2.31224e-07
0.000142172
-1.6061e-06
5.01684e-07
0.000142868
-1.85315e-06
8.86652e-07
0.000143704
-1.24627e-06
5.60097e-07
0.000144542
-2.81699e-07
-1.95574e-07
0.000145297
6.38688e-07
-1.04654e-06
0.000145674
1.07541e-06
-1.55242e-06
0.000145592
1.19038e-06
-1.61138e-06
0.000145092
1.45196e-06
-1.76999e-06
0.00014429
1.99858e-06
-1.76441e-06
0.000143417
2.52887e-06
-1.5601e-06
0.000142532
2.23905e-06
-5.11221e-07
0.000141668
1.22799e-06
1.64073e-06
0.000140837
-3.55714e-07
4.19984e-06
0.000140241
-1.28683e-06
6.40667e-06
0.000140114
-7.41807e-07
7.08388e-06
0.000140374
8.96891e-07
5.85538e-06
0.000140635
2.81786e-06
3.48493e-06
0.00014048
4.10256e-06
1.04889e-06
0.000140071
5.71329e-06
-1.1406e-06
0.000139766
7.43236e-06
-3.276e-06
0.000139691
8.54466e-06
-4.60551e-06
0.000139664
7.81225e-06
-4.49165e-06
0.000139515
5.89483e-06
-3.04308e-06
0.000139306
3.54437e-06
-1.17279e-06
0.000139376
2.17221e-06
-1.80868e-09
0.000139743
2.16252e-06
-3.41604e-09
0.00014024
2.79405e-06
-7.37739e-07
0.000140455
3.34695e-06
-1.95074e-06
2.83056e-06
-2.18757e-06
0.000162157
4.01437e-06
-3.06578e-06
0.000161536
2.39942e-06
-2.20066e-06
0.000160356
5.38032e-07
-4.29202e-07
0.00015911
-9.16247e-07
7.0509e-07
0.000158157
-1.71919e-06
1.01858e-06
0.000157571
-1.79835e-06
4.45353e-07
0.000157211
-1.32075e-06
-6.92952e-07
0.000156868
-2.35677e-07
-1.71373e-06
0.000156398
1.52788e-06
-2.74983e-06
0.000155859
3.57341e-06
-3.69037e-06
0.000155304
5.05019e-06
-4.48971e-06
0.000154814
5.44852e-06
-4.95287e-06
0.000154411
5.14967e-06
-4.7057e-06
0.000154299
4.95091e-06
-4.41897e-06
0.000154476
5.1377e-06
-3.87276e-06
0.000154888
5.46656e-06
-3.27228e-06
0.000155653
5.20202e-06
-2.78477e-06
0.000156528
4.44558e-06
-2.18318e-06
0.000157592
3.10822e-06
-1.73514e-06
0.000158678
1.58786e-06
-1.14113e-06
0.000159611
-1.98793e-07
-7.4295e-08
0.000160548
-1.67303e-06
1.06387e-06
0.000161439
-2.40706e-06
2.00159e-06
0.000162596
-2.28238e-06
2.20034e-06
0.000164005
-1.52642e-06
1.55011e-06
0.000165617
-6.64519e-07
4.96261e-07
0.000166992
-4.97267e-07
-3.66718e-07
0.000167713
-5.42303e-07
-7.22862e-07
0.000167822
-3.41155e-07
-1.2398e-06
0.000167462
4.91174e-07
-2.02904e-06
0.00016696
1.85532e-06
-3.12905e-06
0.000166251
2.53104e-06
-3.55442e-06
0.000165288
1.94346e-06
-1.97822e-06
0.000164013
-3.90206e-08
1.40978e-06
0.000162457
-2.03454e-06
5.64831e-06
0.000161139
-2.76277e-06
8.7291e-06
0.000160482
-1.88049e-06
9.31409e-06
0.000160599
-1.49042e-07
7.66339e-06
0.000161085
1.36862e-06
4.65895e-06
0.000161616
3.06858e-06
1.72376e-06
0.000162079
5.09934e-06
-1.27089e-06
0.000162366
7.00962e-06
-3.52501e-06
0.00016221
7.34271e-06
-4.38198e-06
0.000161579
6.15478e-06
-3.58489e-06
0.000160675
3.83014e-06
-1.81273e-06
0.000160054
1.95994e-06
-1.75135e-07
0.000159968
1.3972e-06
5.80032e-07
0.000160452
2.15164e-06
1.47172e-07
0.000161364
3.69713e-06
-1.46369e-06
4.65537e-06
-2.88574e-06
0.000182954
5.24573e-06
-3.78448e-06
0.000183529
4.40844e-06
-4.03929e-06
0.000183088
2.27717e-06
-2.69218e-06
0.000182099
-5.0453e-07
-7.53154e-07
0.000181232
-2.42591e-06
4.70887e-07
0.000180795
-3.10496e-06
7.87152e-07
0.000180603
-2.47656e-06
-1.98362e-07
0.000180193
-1.02345e-06
-1.34766e-06
0.000179251
9.82116e-07
-2.44496e-06
0.000177986
3.22406e-06
-3.36879e-06
0.0001766
5.01351e-06
-4.26635e-06
0.00017534
5.88239e-06
-5.15112e-06
0.000174256
5.65844e-06
-4.99951e-06
0.000173541
5.3986e-06
-4.59948e-06
0.000173316
5.72744e-06
-3.91414e-06
0.000173376
6.41582e-06
-3.22954e-06
0.000173924
6.43823e-06
-2.8162e-06
0.000174754
5.5549e-06
-2.31122e-06
0.000175873
3.86731e-06
-2.09814e-06
0.000177227
2.05728e-06
-1.94821e-06
0.000178344
3.39649e-07
-1.26962e-06
0.000179336
-1.1145e-06
6.89183e-08
0.000180067
-1.82758e-06
1.69857e-06
0.000180918
-1.80638e-06
2.99733e-06
0.000182211
-1.33034e-06
3.29785e-06
0.000184127
-8.34748e-07
2.75782e-06
0.000186414
-1.39135e-06
1.98784e-06
0.000188292
-2.15007e-06
1.59578e-06
0.000189445
-2.51102e-06
1.00797e-06
0.000189881
-2.19924e-06
5.93113e-08
0.000190143
-7.20212e-07
-1.93218e-06
0.000190247
8.11136e-07
-4.51984e-06
0.000189947
1.30852e-06
-5.32814e-06
0.000189233
1.4113e-07
-3.60309e-06
0.000187854
-2.02676e-06
1.35009e-06
0.000186097
-3.61626e-06
6.80249e-06
0.000184279
-3.51662e-06
1.00907e-05
0.000182931
-2.44287e-06
1.05418e-05
0.000182261
-1.14911e-06
8.22127e-06
0.000182218
3.94017e-07
4.94274e-06
0.00018262
2.39182e-06
1.59282e-06
0.000183121
4.94822e-06
-1.34623e-06
0.000183071
6.53019e-06
-3.11355e-06
0.0001822
6.76081e-06
-3.20052e-06
0.000180734
5.12041e-06
-1.98658e-06
0.000179415
2.93609e-06
-3.56507e-07
0.000178803
1.199e-06
8.99711e-07
0.000178978
8.3696e-07
1.25386e-06
0.000180103
2.14446e-06
-2.45201e-08
4.38136e-06
-2.33023e-06
0.000201489
4.72718e-06
-2.92117e-06
0.000203214
5.13323e-06
-4.47577e-06
0.000203823
3.76204e-06
-4.34165e-06
0.000203236
7.54633e-07
-2.89054e-06
0.000202322
-2.13813e-06
-1.29782e-06
0.000201996
-3.92077e-06
-1.45021e-07
0.000202531
-3.78703e-06
-5.79986e-07
0.000203296
-1.89688e-06
-1.72278e-06
0.00020326
1.05402e-06
-2.87231e-06
0.000202345
3.95295e-06
-3.59879e-06
0.000200814
5.79569e-06
-4.15245e-06
0.000199123
6.63073e-06
-5.42023e-06
0.00019747
6.05425e-06
-5.60258e-06
0.000195954
5.33803e-06
-5.10037e-06
0.000194951
5.57345e-06
-4.15358e-06
0.000194261
6.6811e-06
-3.30798e-06
0.000194096
7.40411e-06
-3.13619e-06
0.000194404
6.73055e-06
-2.82606e-06
0.000195096
4.6749e-06
-2.77421e-06
0.000196375
2.18297e-06
-2.96383e-06
0.00019771
1.10119e-07
-3.24813e-06
0.000199004
-1.2858e-06
-2.74749e-06
0.000199904
-1.60242e-06
-1.24654e-06
0.000200437
-9.60331e-07
8.89742e-07
0.000201085
-7.0206e-08
2.6924e-06
0.000202401
4.50505e-07
3.44874e-06
0.000204665
-8.87883e-07
3.65848e-06
0.000207195
-3.06739e-06
4.0534e-06
0.00020938
-4.46707e-06
3.91386e-06
0.000210691
-4.86121e-06
3.24294e-06
0.00021158
-3.84532e-06
1.38314e-06
0.000212389
-2.10725e-06
-2.32141e-06
0.00021279
-8.56855e-07
-5.59246e-06
0.000212704
-9.67641e-07
-6.74874e-06
0.000212028
-2.22327e-06
-3.77711e-06
0.000211168
-4.2302e-06
2.58625e-06
0.000209964
-4.58929e-06
8.08857e-06
0.000208343
-3.93441e-06
1.12101e-05
0.000206512
-2.82013e-06
1.05519e-05
0.000204784
-1.14096e-06
7.745e-06
0.000203572
7.21881e-07
4.31751e-06
0.000203047
3.24875e-06
1.43714e-06
0.000202603
5.57814e-06
-9.9173e-07
0.000201566
7.32418e-06
-2.00818e-06
0.000199867
7.12262e-06
-1.66043e-06
0.000198101
5.38124e-06
-5.0061e-07
0.000197075
2.80946e-06
7.79901e-07
0.000196899
7.86999e-07
1.79243e-06
0.000197754
4.40339e-07
1.62376e-06
2.65786e-06
-5.83906e-07
0.000219268
3.64562e-06
-9.48697e-07
0.000221333
5.02367e-06
-3.16984e-06
0.000223048
4.38026e-06
-4.2562e-06
0.000223677
1.48878e-06
-3.85546e-06
0.000223402
-1.91794e-06
-2.81327e-06
0.000223036
-4.53437e-06
-1.25598e-06
0.000223525
-5.33143e-06
-9.40392e-07
0.000225012
-3.66064e-06
-1.97784e-06
0.000226212
4.87201e-07
-3.57523e-06
0.000226515
5.18433e-06
-4.60548e-06
0.000225885
8.00447e-06
-4.43339e-06
0.000224668
8.86453e-06
-5.44269e-06
0.000223208
7.49212e-06
-6.097e-06
0.000221317
5.7252e-06
-5.77771e-06
0.00021947
5.3707e-06
-4.56886e-06
0.000217743
6.65215e-06
-3.30414e-06
0.000216517
8.19149e-06
-3.42159e-06
0.000216091
8.03569e-06
-3.68159e-06
0.000216158
5.78491e-06
-3.92701e-06
0.000216945
2.35817e-06
-3.91149e-06
0.00021802
-8.21294e-07
-4.36719e-06
0.000219314
-2.77041e-06
-5.04037e-06
0.000220526
-2.97957e-06
-4.89953e-06
0.00022125
-1.3641e-06
-3.33941e-06
0.000221553
7.56025e-07
-8.40199e-07
0.000222052
1.97435e-06
1.29823e-06
0.000223562
4.65266e-07
2.66221e-06
0.000225861
-3.23423e-06
4.46265e-06
0.000228535
-6.37234e-06
5.6143e-06
0.000230701
-7.87452e-06
5.7583e-06
0.000232163
-7.15729e-06
4.66285e-06
0.000233438
-5.18198e-06
9.51604e-07
0.000234306
-3.61542e-06
-3.34629e-06
0.000234537
-3.11932e-06
-6.80222e-06
0.000233819
-3.22461e-06
-6.40488e-06
0.000233189
-4.80773e-06
-1.18952e-06
0.000233066
-5.66246e-06
5.3338e-06
0.000232835
-5.38116e-06
1.04653e-05
0.000231817
-4.46805e-06
1.17711e-05
0.000229628
-2.3376e-06
9.84131e-06
0.000226796
1.22673e-07
6.6199e-06
0.000224513
2.59805e-06
3.90271e-06
0.000223021
4.71594e-06
1.57683e-06
0.000221614
7.2198e-06
-2.02427e-07
0.000219827
8.57941e-06
-9.41307e-07
0.00021782
8.15366e-06
-6.38424e-07
0.000216384
5.98605e-06
2.49535e-07
0.000215857
2.81217e-06
1.5346e-06
0.000216295
3.01566e-07
2.49672e-06
1.09116e-06
1.39585e-06
0.000238296
3.35916e-06
5.66523e-07
0.00023973
5.16894e-06
-1.54286e-06
0.000241687
4.7224e-06
-2.9377e-06
0.000243568
1.44858e-06
-3.09578e-06
0.00024495
-2.88721e-06
-2.81829e-06
0.000245694
-6.31304e-06
-1.40864e-06
0.000246344
-8.04341e-06
-1.44617e-07
0.000247791
-7.20112e-06
-4.79047e-07
0.000249287
-2.30563e-06
-2.56405e-06
0.000250235
4.90328e-06
-5.1129e-06
0.000250654
1.02449e-05
-5.09361e-06
0.000250567
1.23638e-05
-5.25404e-06
0.000250118
1.07467e-05
-5.98652e-06
0.000248666
7.88312e-06
-6.27317e-06
0.000246401
6.54863e-06
-5.26875e-06
0.000243753
7.52569e-06
-3.31607e-06
0.000241428
9.52735e-06
-3.15372e-06
0.00024031
9.76845e-06
-3.96301e-06
0.000240083
7.33151e-06
-5.04304e-06
0.000240638
3.00543e-06
-5.13602e-06
0.000241346
-1.56516e-06
-4.88047e-06
0.000242055
-4.62926e-06
-5.69055e-06
0.000242912
-5.35129e-06
-6.8638e-06
0.000243584
-3.29256e-06
-7.02934e-06
0.000243795
3.04477e-07
-5.00868e-06
0.000243722
3.07889e-06
-2.18225e-06
0.000244308
1.95372e-06
-4.72944e-08
0.000245715
-2.79851e-06
2.74218e-06
0.000247954
-8.02437e-06
5.49653e-06
0.000250461
-1.14005e-05
6.86185e-06
0.000252535
-1.12759e-05
6.83455e-06
0.000254378
-8.69511e-06
3.62357e-06
0.000255854
-6.44305e-06
-8.66875e-07
0.000256638
-5.7354e-06
-5.27105e-06
0.000255771
-4.93468e-06
-6.92909e-06
0.000254164
-5.56306e-06
-3.04152e-06
0.000253509
-6.57073e-06
3.45798e-06
0.000254099
-6.63749e-06
9.55571e-06
0.000254949
-6.29705e-06
1.2462e-05
0.000254473
-4.22873e-06
1.15045e-05
0.000251878
-8.63061e-07
8.37488e-06
0.000248474
2.25755e-06
5.79528e-06
0.000245718
4.16421e-06
3.753e-06
0.000243594
6.86099e-06
1.71412e-06
0.000241635
9.29226e-06
1.15551e-07
0.000239635
1.02055e-05
-6.50913e-07
0.000237952
9.334e-06
-4.9073e-07
0.00023697
6.33133e-06