/*--------------------------------*- C++ -*----------------------------------*\
| =========                 |                                                 |
| \\      /  F ield         | OpenFOAM: The Open Source CFD Toolbox           |
|  \\    /   O peration     | Version:  2.3.0                                 |
|   \\  /    A nd           | Web:      www.OpenFOAM.org                      |
|    \\/     M anipulation  |                                                 |
\*---------------------------------------------------------------------------*/
FoamFile
{
    version     2.0;
    format      ascii;
    class       surfaceScalarField;
    location    "200";
    object      phi_0;
}
// * * * * * * * * * * * * * * * * * * * * * * * * * * * * * * * * * * * * * //

dimensions      [0 3 -1 0 0 0 0];

internalField   nonuniform List<scalar> 
175300
(
5.98798e-06
-1.29853e-06
1.40067e-06
6.45008e-06
-9.54419e-07
1.38659e-06
6.87178e-06
-5.92468e-07
1.14008e-06
7.22469e-06
-4.45921e-07
8.42054e-07
7.7007e-06
-5.17697e-07
4.67376e-07
8.31154e-06
-4.87908e-07
3.48537e-07
8.90724e-06
-4.74466e-07
7.96942e-07
9.16068e-06
-5.88324e-07
1.17263e-06
9.10257e-06
-5.75222e-07
7.74666e-07
8.81741e-06
-5.75718e-07
5.67721e-08
8.24091e-06
-4.39533e-07
-5.8473e-08
7.70251e-06
-8.54245e-07
5.26994e-07
7.49599e-06
-1.6976e-06
1.43549e-06
7.49435e-06
-1.76965e-06
1.71843e-06
7.35053e-06
-9.72315e-07
1.18749e-06
6.94053e-06
-8.02931e-08
4.44462e-07
6.37864e-06
2.39292e-07
3.33229e-08
6.02631e-06
1.60853e-07
-1.46052e-07
6.01994e-06
1.57964e-07
-4.04723e-07
6.14376e-06
4.56089e-07
-6.65599e-07
6.16068e-06
8.32949e-07
-6.58176e-07
6.05627e-06
1.05407e-06
-3.08844e-07
6.08832e-06
9.90737e-07
3.07952e-08
6.43168e-06
5.02538e-07
2.34753e-07
6.99721e-06
1.28627e-07
2.42467e-07
7.41862e-06
2.36501e-07
1.29963e-07
7.25773e-06
7.17874e-07
4.83346e-08
6.56431e-06
8.14168e-07
-1.51151e-07
5.91277e-06
-2.31644e-08
-3.3259e-07
5.4035e-06
-1.44682e-06
-4.51144e-08
5.05327e-06
-2.73201e-06
6.55184e-07
5.08548e-06
-3.36389e-06
1.16241e-06
5.29293e-06
-2.68073e-06
1.01327e-06
5.08609e-06
-5.08127e-07
1.15198e-08
4.7924e-06
7.01771e-07
-7.69011e-07
4.75308e-06
8.32431e-07
-9.85333e-07
4.87903e-06
5.3982e-07
-7.9939e-07
4.99881e-06
2.17303e-07
-4.73654e-07
5.2177e-06
-3.67782e-07
8.46184e-08
-1.08303e-06
8.72077e-07
1.91475e-05
-3.39967e-06
1.8874e-06
2.01347e-05
-2.4493e-06
1.74751e-06
2.13047e-05
-1.66726e-06
1.29603e-06
2.25734e-05
-1.61083e-06
7.56166e-07
2.4213e-05
-2.15135e-06
2.40934e-07
2.62435e-05
-2.35344e-06
7.37262e-07
2.81918e-05
-2.78145e-06
2.94485e-06
2.94191e-05
-3.30288e-06
4.39882e-06
3.0017e-05
-3.20845e-06
3.40613e-06
2.99337e-05
-2.68904e-06
1.19131e-06
2.88879e-05
-1.55754e-06
-1.35833e-07
2.73697e-05
-2.11783e-06
4.52422e-07
2.59868e-05
-3.81042e-06
2.1048e-06
2.49211e-05
-3.63121e-06
2.89206e-06
2.38945e-05
-1.71553e-06
2.143e-06
2.26689e-05
3.8109e-07
1.01987e-06
2.12158e-05
1.18859e-06
6.0995e-07
2.00404e-05
1.19406e-06
3.69217e-07
1.96122e-05
1.41927e-06
-4.01605e-07
1.98257e-05
2.01667e-06
-1.06289e-06
2.01507e-05
2.85911e-06
-9.12205e-07
2.04097e-05
3.44025e-06
-1.65176e-07
2.09501e-05
2.99804e-06
5.74152e-07
2.18513e-05
1.82058e-06
1.05076e-06
2.29528e-05
9.89487e-07
1.07959e-06
2.39967e-05
8.99301e-07
8.19237e-07
2.44185e-05
1.27697e-06
5.70876e-07
2.39604e-05
7.7106e-07
1.06096e-07
2.27157e-05
-1.35631e-06
-5.04224e-07
2.05807e-05
-4.21066e-06
-4.71391e-08
1.82257e-05
-6.79634e-06
8.92784e-07
1.6715e-05
-7.99003e-06
1.20071e-06
1.60044e-05
-5.7529e-06
3.94537e-07
1.53252e-05
-8.56651e-07
-7.01496e-07
1.50071e-05
2.04054e-06
-1.80631e-06
1.53047e-05
2.02148e-06
-1.70276e-06
1.60237e-05
1.11079e-06
-1.09447e-06
1.68523e-05
1.036e-07
-4.64115e-07
1.76825e-05
-1.38698e-06
2.7616e-07
-3.04586e-06
1.28065e-06
3.28232e-05
-5.12096e-06
8.00594e-07
3.39731e-05
-3.54131e-06
4.35607e-07
3.55861e-05
-2.2548e-06
-4.56725e-08
3.74648e-05
-2.41965e-06
-9.33538e-07
3.9959e-05
-3.28977e-06
-2.33671e-06
4.30586e-05
-4.41499e-06
-1.68558e-06
4.60899e-05
-5.71778e-06
2.6174e-06
4.85003e-05
-7.90477e-06
7.18306e-06
5.0858e-05
-9.05688e-06
7.78556e-06
5.28229e-05
-7.98234e-06
4.85776e-06
5.26459e-05
-3.93063e-06
1.16851e-06
5.01711e-05
-2.20626e-06
-3.85695e-07
4.70959e-05
-3.86857e-06
8.18849e-07
4.47536e-05
-3.91116e-06
2.69345e-06
4.30364e-05
-1.64084e-06
2.63173e-06
4.14808e-05
1.43003e-06
1.33006e-06
3.94889e-05
2.56782e-06
1.04307e-06
3.71076e-05
2.5659e-06
1.7901e-06
3.54355e-05
3.15979e-06
1.37474e-06
3.5323e-05
4.39267e-06
-2.99977e-07
3.61998e-05
5.84167e-06
-7.08955e-07
3.73284e-05
6.99541e-06
1.74888e-08
3.87528e-05
6.01928e-06
7.80069e-07
4.01631e-05
4.16468e-06
1.5838e-06
4.12806e-05
3.50308e-06
1.9479e-06
4.27111e-05
3.20532e-06
1.93249e-06
4.47941e-05
2.25861e-06
2.04038e-06
4.67577e-05
-4.99469e-07
1.39083e-06
4.67513e-05
-4.28499e-06
2.75164e-07
4.30581e-05
-6.95923e-06
6.31183e-08
3.69344e-05
-9.546e-06
1.02419e-06
3.16608e-05
-1.13734e-05
1.01468e-06
2.87056e-05
-8.38842e-06
-2.07548e-07
2.71485e-05
-8.47573e-07
-1.75463e-06
2.67046e-05
3.88662e-06
-3.0755e-06
2.7215e-05
3.56626e-06
-2.66117e-06
2.84068e-05
1.9033e-06
-1.55114e-06
2.99263e-05
3.42517e-07
-7.11518e-07
3.13016e-05
-1.8984e-06
-6.41134e-08
-4.45381e-06
5.51977e-07
4.62554e-05
-5.24007e-06
-6.34894e-07
4.71562e-05
-3.47271e-06
-1.60127e-06
4.87323e-05
-1.52754e-06
-2.41676e-06
5.05049e-05
-1.12099e-06
-3.78234e-06
5.30765e-05
-2.23795e-06
-6.65502e-06
5.67227e-05
-3.87146e-06
-7.76449e-06
6.00383e-05
-6.32655e-06
-2.42068e-06
6.21672e-05
-1.10763e-05
6.33448e-06
6.52581e-05
-1.59779e-05
1.08054e-05
7.0464e-05
-1.75855e-05
9.90793e-06
7.37414e-05
-1.0315e-05
5.45219e-06
7.16148e-05
-2.34831e-06
4.85446e-07
6.67825e-05
-8.90079e-07
-1.25536e-06
6.33871e-05
-4.68286e-07
2.9049e-07
6.1734e-05
4.57244e-07
2.3063e-06
6.07502e-05
3.76369e-06
1.36636e-06
5.9395e-05
5.08711e-06
-1.18541e-08
5.66602e-05
4.49005e-06
1.59781e-06
5.33393e-05
4.75499e-06
3.7005e-06
5.16838e-05
6.32551e-06
2.99344e-06
5.22364e-05
9.24121e-06
1.36697e-06
5.40263e-05
1.23356e-05
7.53351e-07
5.68021e-05
1.07976e-05
3.16119e-07
5.99804e-05
6.17438e-06
8.86001e-07
6.21899e-05
5.19378e-06
1.83069e-06
6.34689e-05
6.74183e-06
2.51952e-06
6.54669e-05
6.11762e-06
3.99757e-06
6.92583e-05
6.24662e-07
4.7209e-06
7.2825e-05
-6.82338e-06
3.04242e-06
7.1181e-05
-9.97117e-06
1.56059e-06
6.26119e-05
-1.05886e-05
2.15563e-06
5.19795e-05
-1.18949e-05
1.91334e-06
4.46193e-05
-9.31712e-06
-4.08361e-07
4.09357e-05
-3.11755e-08
-3.15396e-06
3.98e-05
6.56373e-06
-5.16083e-06
4.01317e-05
5.69118e-06
-4.62753e-06
4.1341e-05
2.71928e-06
-2.73914e-06
4.31915e-05
8.21994e-07
-1.0152e-06
4.50282e-05
-1.27858e-06
-3.95147e-08
-4.06838e-06
3.09121e-08
6.00639e-05
-3.25285e-06
-5.94421e-07
6.03823e-05
-1.28456e-06
-3.41317e-06
6.18236e-05
1.48309e-06
-5.39793e-06
6.32314e-05
2.90515e-06
-6.91038e-06
6.48944e-05
1.95741e-06
-1.0859e-05
6.83599e-05
-1.3278e-07
-1.47985e-05
7.21674e-05
-3.39263e-06
-1.07258e-05
7.34006e-05
-9.65782e-06
7.13836e-07
7.42518e-05
-1.84873e-05
9.31146e-06
8.00897e-05
-2.65957e-05
1.19185e-05
8.84554e-05
-2.19427e-05
1.04851e-05
9.04299e-05
-7.31638e-06
4.78584e-06
8.50733e-05
1.34875e-06
-1.59026e-06
7.97689e-05
5.50785e-06
-3.43607e-06
7.78311e-05
6.67702e-06
-7.0744e-07
7.76955e-05
9.0722e-06
1.5721e-06
7.78708e-05
9.79653e-06
-3.78029e-07
7.6529e-05
8.67702e-06
-1.34678e-06
7.29173e-05
7.90938e-06
1.71215e-06
6.93102e-05
7.83473e-06
4.90515e-06
6.80537e-05
1.09382e-05
5.91825e-06
6.93471e-05
1.71116e-05
5.36573e-06
7.2577e-05
1.82252e-05
2.12603e-06
7.70366e-05
1.06792e-05
-3.7086e-07
8.1812e-05
4.2261e-06
5.6563e-08
8.58868e-05
5.24345e-06
7.70913e-07
8.86959e-05
7.82064e-06
3.43364e-06
9.15346e-05
3.76839e-06
7.53772e-06
9.604e-05
-5.9205e-06
8.33527e-06
9.86973e-05
-1.12061e-05
6.37589e-06
9.25895e-05
-8.8004e-06
5.63198e-06
7.83649e-05
-8.04555e-06
5.00342e-06
6.50524e-05
-5.9433e-06
6.09969e-07
5.75287e-05
2.43587e-06
-4.30306e-06
5.48764e-05
1.03536e-05
-7.88857e-06
5.46501e-05
8.93222e-06
-7.65424e-06
5.54969e-05
3.58173e-06
-5.13176e-06
5.72134e-05
3.20567e-07
-2.04232e-06
5.92549e-05
-1.02302e-06
5.49677e-07
-2.44558e-06
1.33843e-06
7.56188e-05
-5.73683e-07
2.18182e-06
7.48658e-05
2.32451e-06
-2.82103e-06
7.59514e-05
6.30365e-06
-7.29573e-06
7.7832e-05
8.43514e-06
-9.10212e-06
7.884e-05
8.34088e-06
-1.29464e-05
8.09035e-05
6.19274e-06
-1.95565e-05
8.5004e-05
2.25068e-06
-1.93179e-05
8.69912e-05
-3.75848e-06
-8.86001e-06
8.54097e-05
-1.35065e-05
2.42397e-06
8.72308e-05
-2.74206e-05
7.80598e-06
9.69733e-05
-3.26269e-05
1.10263e-05
0.000105783
-1.88647e-05
9.44456e-06
0.000104321
-1.2701e-06
1.17154e-06
9.73983e-05
1.06293e-05
-6.52776e-06
9.34204e-05
1.61814e-05
-7.25894e-06
9.27639e-05
1.82858e-05
-2.30217e-06
9.37311e-05
1.78837e-05
-4.02285e-07
9.47375e-05
1.54051e-05
-2.67632e-06
9.33425e-05
1.42171e-05
-3.27184e-06
8.96909e-05
1.28463e-05
-6.12797e-07
8.63055e-05
1.25244e-05
5.22794e-06
8.55872e-05
1.86539e-05
1.01586e-05
8.86752e-05
2.26142e-05
9.38506e-06
9.39404e-05
1.66336e-05
4.00136e-06
9.91355e-05
6.14306e-06
4.60853e-07
0.000104637
1.61835e-06
-1.44458e-06
0.000110549
2.96894e-06
9.88037e-09
0.000115075
1.98848e-06
4.57646e-06
0.000118981
-6.09109e-06
9.28428e-06
0.000124136
-1.37197e-05
1.10941e-05
0.00012401
-1.00229e-05
1.16731e-05
0.000110426
-3.89182e-07
1.13181e-05
9.07704e-05
5.48267e-06
5.50007e-06
7.74033e-05
1.01825e-05
-3.56139e-06
7.2696e-05
1.54746e-05
-1.05001e-05
7.23133e-05
1.31884e-05
-1.1279e-05
7.29152e-05
5.87095e-06
-8.4484e-06
7.40068e-05
-2.58111e-07
-4.25528e-06
7.55993e-05
-2.58589e-06
5.74879e-07
-2.12974e-06
3.87908e-06
9.42945e-05
1.934e-07
7.66354e-06
9.21104e-05
4.71931e-06
1.22323e-06
9.14987e-05
1.19337e-05
-7.08444e-06
9.31721e-05
1.52343e-05
-1.10547e-05
9.50943e-05
1.42186e-05
-1.28146e-05
9.66095e-05
1.22521e-05
-1.96188e-05
9.99834e-05
8.35344e-06
-2.41628e-05
0.000103355
3.30009e-06
-1.77928e-05
0.000102185
-3.27432e-06
-7.24848e-06
9.90644e-05
-1.74585e-05
-5.48301e-07
0.000103508
-3.33221e-05
4.73006e-06
0.000115875
-3.05267e-05
8.62702e-06
0.000123058
-9.51768e-06
3.92099e-06
0.000119155
1.1649e-05
-7.32345e-06
0.000112399
2.56183e-05
-1.5235e-05
0.000108936
3.10627e-05
-1.2494e-05
0.000108701
2.87119e-05
-6.28502e-06
0.000110488
2.38864e-05
-5.10025e-06
0.000111895
2.18431e-05
-7.06885e-06
0.000110968
1.99687e-05
-8.05471e-06
0.000108209
1.81872e-05
-3.54231e-06
0.000106105
2.11889e-05
6.73541e-06
0.000108
2.33189e-05
1.38209e-05
0.000113878
1.85052e-05
1.24991e-05
0.000119999
9.49849e-06
6.85986e-06
0.000124887
1.28382e-06
1.54547e-06
0.000130511
-2.6332e-06
-4.73029e-07
0.000136436
-3.66721e-06
1.82723e-06
0.000140213
-7.6078e-06
4.68445e-06
0.000144296
-1.63515e-05
7.22287e-06
0.000149714
-1.8324e-05
1.19134e-05
0.000144734
-3.08762e-06
1.72173e-05
0.000124412
1.68039e-05
1.44572e-05
0.000103773
2.55103e-05
1.57354e-06
9.48377e-05
2.4997e-05
-1.08159e-05
9.4809e-05
1.80962e-05
-1.50774e-05
9.68699e-05
9.24548e-06
-1.28856e-05
9.7804e-05
1.80443e-06
-7.55806e-06
9.76595e-05
-2.162e-06
-5.57435e-07
-1.75458e-06
6.02103e-06
0.000119037
3.12514e-06
1.34205e-05
0.000113737
4.24449e-06
1.02317e-05
0.000110775
1.38892e-05
-1.46851e-06
0.000110262
2.23012e-05
-1.23007e-05
0.000111329
2.04425e-05
-1.45839e-05
0.000113131
1.59758e-05
-1.72502e-05
0.000116686
1.27825e-05
-2.31253e-05
0.000121424
9.46648e-06
-2.20738e-05
0.000122563
5.94696e-06
-1.34356e-05
0.000117434
-3.0699e-06
-5.96396e-06
0.000113186
-2.09294e-05
-4.87465e-07
0.000120532
-3.15071e-05
3.96742e-06
0.000134834
-1.92398e-05
2.58898e-06
0.00014142
6.44542e-06
-8.78137e-06
0.000137729
3.11652e-05
-2.25026e-05
0.000131383
4.27651e-05
-2.59485e-05
0.000127532
4.04165e-05
-1.95982e-05
0.000127212
3.31643e-05
-1.38499e-05
0.000128721
2.91498e-05
-1.28339e-05
0.000129905
2.63989e-05
-1.57681e-05
0.000129887
2.41964e-05
-1.53176e-05
0.000129368
2.59977e-05
-4.48001e-06
0.000131208
2.55788e-05
8.68405e-06
0.000137007
1.74766e-05
1.56815e-05
0.000144135
9.70325e-06
1.45786e-05
0.000148996
4.07934e-06
7.33577e-06
0.000152376
-2.63321e-06
1.36508e-06
0.000157146
-8.04727e-06
2.32207e-06
0.000162321
-1.11205e-05
4.39298e-06
0.000165217
-1.69214e-05
3.74151e-06
0.000168389
-2.30788e-05
6.19143e-06
0.000169559
-1.25913e-05
1.54473e-05
0.000158687
1.52947e-05
2.05279e-05
0.000139032
3.44493e-05
1.10645e-05
0.000125441
3.37605e-05
-4.94468e-06
0.000122867
2.20954e-05
-1.49326e-05
0.000126232
1.15418e-05
-1.69973e-05
0.000129468
4.81115e-06
-1.27592e-05
0.000129319
1.67558e-06
-3.80086e-06
2.85394e-06
7.00092e-06
0.000154833
8.93061e-06
1.72073e-05
0.000144142
6.67428e-06
1.93189e-05
0.000136671
1.37214e-05
8.56629e-06
0.000133288
2.58013e-05
-7.15728e-06
0.000131758
2.57628e-05
-1.5846e-05
0.000131407
1.96492e-05
-1.8451e-05
0.00013395
1.73525e-05
-2.17422e-05
0.000139396
1.62587e-05
-2.13505e-05
0.000143323
1.32105e-05
-1.46789e-05
0.000140383
8.11039e-06
-7.97052e-06
0.000131773
-3.69429e-06
-2.11733e-06
0.00012914
-1.93011e-05
3.63104e-06
0.000140773
-2.24357e-05
5.45424e-06
0.000157362
-3.33977e-06
-3.36846e-06
0.000164611
2.5508e-05
-2.08419e-05
0.00016114
4.55571e-05
-3.28299e-05
0.000153787
4.77266e-05
-3.24909e-05
0.000148902
4.16973e-05
-2.64853e-05
0.000148038
3.77906e-05
-2.14372e-05
0.000148998
3.37684e-05
-2.22276e-05
0.000150277
2.85806e-05
-2.57066e-05
0.000151929
2.70315e-05
-1.93512e-05
0.000155343
2.40572e-05
-4.26592e-06
0.000161555
1.46036e-05
8.3076e-06
0.000168882
6.44623e-06
1.49669e-05
0.000173577
5.68829e-06
1.15419e-05
0.000174633
2.84655e-06
2.6168e-06
0.000176148
-4.76742e-06
4.62738e-07
0.000182103
-1.19353e-05
3.78626e-06
0.000189138
-1.85643e-05
4.82202e-06
0.000192069
-2.40822e-05
4.89387e-06
0.000191028
-1.78774e-05
1.19128e-05
0.000185369
6.73456e-06
2.18631e-05
0.000174449
2.96447e-05
1.95083e-05
0.000163245
3.35069e-05
6.06594e-06
0.00015687
2.39172e-05
-6.85118e-06
0.000157218
1.32105e-05
-1.41705e-05
0.00016215
6.00152e-06
-1.61927e-05
0.000166022
3.92143e-06
-9.57357e-06
7.12729e-06
4.7375e-06
0.000198524
6.39581e-06
1.55701e-05
0.000185152
1.09951e-05
2.41931e-05
0.000170954
1.73409e-05
1.87215e-05
0.000163376
2.73936e-05
3.12154e-06
0.000159531
2.85307e-05
-1.16924e-05
0.000155807
2.33564e-05
-1.93761e-05
0.000154839
2.20572e-05
-2.24375e-05
0.000158671
2.35596e-05
-2.05381e-05
0.000163855
2.10587e-05
-1.44529e-05
0.000164585
1.73574e-05
-1.02073e-05
0.00015793
1.29271e-05
-6.57014e-06
0.000148855
-1.54275e-07
1.77153e-06
0.000150231
-1.73641e-05
1.20338e-05
0.000166822
-1.75692e-05
1.37035e-05
0.000185802
6.74476e-06
-1.7617e-06
0.000193327
3.46296e-05
-2.31527e-05
0.000187636
4.66827e-05
-3.45777e-05
0.000177683
4.7118e-05
-3.58819e-05
0.000172427
4.62263e-05
-3.14763e-05
0.00017214
4.25751e-05
-2.8776e-05
0.000173177
3.42473e-05
-3.15486e-05
0.000174392
2.63522e-05
-2.95376e-05
0.000177165
1.86558e-05
-1.78111e-05
0.000182654
7.44968e-06
-3.29166e-06
0.000190365
1.49032e-06
6.79632e-06
0.000196295
4.6617e-06
9.37931e-06
0.000196988
8.76656e-06
2.30362e-06
0.000195039
4.52411e-06
-2.46999e-06
0.000198577
-6.68671e-06
1.36517e-06
0.000210085
-1.88543e-05
5.24954e-06
0.000219451
-2.46289e-05
6.45708e-06
0.000218688
-1.86666e-05
1.11019e-05
0.000211544
-2.07004e-07
2.26951e-05
0.000203161
1.99182e-05
2.65022e-05
0.000194159
2.91406e-05
1.53633e-05
0.0001844
2.82018e-05
2.6779e-06
0.000178021
1.98446e-05
-5.93159e-06
0.000180833
7.03353e-06
-1.19732e-05
0.000191729
-2.71719e-06
-1.24689e-05
-1.55503e-06
-1.56328e-06
0.00023346
-1.32798e-05
1.0224e-05
0.000231855
2.7906e-06
2.33011e-05
0.000216488
2.11691e-05
2.57509e-05
0.000199884
3.23324e-05
1.60784e-05
0.000189184
3.17525e-05
-6.8321e-07
0.000182204
2.65593e-05
-1.44116e-05
0.00017834
2.54536e-05
-1.90358e-05
0.000179279
2.85247e-05
-1.49987e-05
0.000183562
2.84869e-05
-9.05658e-06
0.000188258
2.53253e-05
-8.68876e-06
0.000189849
2.4696e-05
-1.06924e-05
0.000184701
1.92817e-05
-5.77795e-06
0.000177353
-5.73061e-07
8.90857e-06
0.000181102
-2.2228e-05
2.55106e-05
0.000198693
-1.69632e-05
2.3508e-05
0.000216683
1.04148e-05
1.04154e-06
0.000221791
3.35821e-05
-2.18292e-05
0.000214444
4.58704e-05
-3.5009e-05
0.000205489
5.22849e-05
-3.69678e-05
0.000200685
5.24146e-05
-3.38845e-05
0.000197711
4.4175e-05
-3.50949e-05
0.000194775
3.02711e-05
-3.50841e-05
0.000194204
1.46898e-05
-2.67914e-05
0.000198059
7.75686e-07
-1.33397e-05
0.000206087
-4.06923e-06
-3.68867e-07
0.00021542
2.38182e-06
4.43666e-06
0.000220054
1.29878e-05
2.17017e-08
0.000217494
1.47519e-05
-4.20885e-06
0.000215805
2.34672e-06
1.30935e-07
0.000227117
-1.81351e-05
6.86986e-06
0.000245839
-2.94272e-05
1.02956e-05
0.000252305
-2.0435e-05
1.25816e-05
0.000241075
5.57692e-07
2.22405e-05
0.000224614
1.88271e-05
3.08768e-05
0.000213047
2.8486e-05
2.451e-05
0.000204835
3.14483e-05
1.1144e-05
0.000197561
2.65392e-05
1.87981e-06
0.000195877
1.32728e-05
-5.08195e-06
0.000204395
-5.16014e-06
-8.8522e-06
-1.69748e-05
-4.57057e-06
0.000250391
-3.23977e-05
8.62362e-06
0.000262658
-1.83613e-05
1.75478e-05
0.00026542
8.68743e-06
2.49922e-05
0.000256354
2.83111e-05
2.7316e-05
0.000240049
3.29959e-05
1.72204e-05
0.000223508
3.22662e-05
-1.81095e-06
0.000211504
3.17693e-05
-1.29246e-05
0.000205646
3.22382e-05
-6.70151e-06
0.000204141
3.09334e-05
5.70452e-06
0.000206575
2.78245e-05
5.33328e-06
0.000214151
2.64995e-05
-4.77511e-06
0.000221868
2.53234e-05
-9.56561e-06
0.000221208
1.47856e-05
-2.38485e-07
0.00021533
-8.4089e-06
2.11551e-05
0.000217558
-2.04692e-05
3.32163e-05
0.000230795
-6.894e-06
1.95903e-05
0.000243312
1.5671e-05
-6.92465e-06
0.000245707
3.61752e-05
-2.82683e-05
0.000241038
5.07529e-05
-3.47616e-05
0.00023537
5.9119e-05
-3.28598e-05
0.000228858
5.89576e-05
-3.60396e-05
0.000220567
4.57782e-05
-4.07156e-05
0.000214761
2.28466e-05
-3.87856e-05
0.000215264
3.0838e-06
-2.89559e-05
0.000221636
-3.6584e-06
-1.36442e-05
0.000232622
2.54395e-06
-9.45422e-07
0.000242436
1.39901e-05
1.16007e-06
0.000244232
2.12716e-05
-2.48076e-06
0.000239549
1.32466e-05
-2.29383e-06
0.000243162
-1.17093e-05
2.83762e-06
0.000263468
-3.45853e-05
1.05275e-05
0.000282542
-2.96103e-05
1.56734e-05
0.000278268
-9.62105e-07
2.26491e-05
0.000256018
2.4875e-05
3.12832e-05
0.000237696
3.46253e-05
2.9562e-05
0.000230623
3.40698e-05
1.8855e-05
0.000227043
2.96834e-05
9.10162e-06
0.000224253
2.10091e-05
1.93188e-06
0.000226498
2.79363e-06
-1.88072e-06
-2.06392e-05
1.75658e-07
0.000267113
-3.90134e-05
1.10454e-05
0.000281008
-3.99824e-05
1.39622e-05
0.000301992
-1.86666e-05
1.66672e-05
0.000312768
7.52745e-06
2.40198e-05
0.000299812
2.82965e-05
2.44152e-05
0.000271553
4.20697e-05
9.81448e-06
0.000246188
4.52233e-05
-7.07589e-06
0.000232689
3.79085e-05
-5.80258e-06
0.000228109
2.53511e-05
1.28099e-05
0.000228759
1.73993e-05
2.20268e-05
0.000234805
1.72701e-05
1.15037e-05
0.000243966
2.10452e-05
-2.46949e-06
0.000250318
1.9411e-05
-4.45735e-06
0.000249297
4.81795e-06
1.01641e-05
0.000245565
-9.69279e-06
2.78112e-05
0.000247156
-6.02926e-06
2.67284e-05
0.000254201
1.06504e-05
4.60921e-06
0.000262349
2.83654e-05
-2.19464e-05
0.000269082
4.29969e-05
-3.49496e-05
0.000271045
5.77621e-05
-3.11733e-05
0.000266874
6.9991e-05
-2.96156e-05
0.000258729
6.54547e-05
-3.60309e-05
0.000250787
4.22691e-05
-4.22679e-05
0.000246575
1.76147e-05
-4.0473e-05
0.000247456
7.20185e-06
-2.75055e-05
0.000254868
1.05534e-05
-1.00539e-05
0.000265117
1.61303e-05
9.31665e-07
0.000270592
2.27417e-05
2.06128e-06
0.000268145
2.16583e-05
-1.78519e-06
0.000265897
1.06548e-06
-4.68944e-06
0.000276901
-2.95338e-05
-8.23563e-07
0.000299411
-3.72355e-05
9.44823e-06
0.000312819
-1.03373e-05
2.02855e-05
0.000304459
2.26066e-05
2.96578e-05
0.000285199
3.85651e-05
2.99389e-05
0.000271574
3.91705e-05
2.13846e-05
0.000266408
3.36451e-05
1.24698e-05
0.000265456
2.50214e-05
5.99678e-06
0.000264748
1.02188e-05
3.06658e-06
-1.45201e-05
5.43607e-06
0.00030264
-3.36356e-05
1.0297e-05
0.000307584
-4.73688e-05
1.45744e-05
0.000327625
-3.88378e-05
1.31035e-05
0.000346827
-1.24595e-05
1.41732e-05
0.000341545
2.30819e-05
1.72218e-05
0.00031491
5.13022e-05
1.29394e-05
0.000290766
5.89887e-05
-1.19149e-06
0.000280433
4.46776e-05
-9.87475e-06
0.000276944
1.80637e-05
1.62859e-06
0.000272681
-2.04168e-06
2.10167e-05
0.000270507
-6.2798e-06
2.55033e-05
0.000272429
3.95187e-06
1.34156e-05
0.000274535
1.41087e-05
2.13192e-06
0.00027381
1.06281e-05
2.56511e-06
0.000270785
3.97028e-07
1.38706e-05
0.000269136
1.34626e-06
2.25755e-05
0.000271589
1.36938e-05
1.53775e-05
0.000278159
2.71713e-05
-9.21994e-06
0.000288388
3.83878e-05
-3.41949e-05
0.000298184
5.48876e-05
-3.99085e-05
0.000302163
7.52039e-05
-3.5921e-05
0.000299213
7.95758e-05
-3.72756e-05
0.000293506
6.10134e-05
-4.33176e-05
0.000288663
3.5553e-05
-4.56757e-05
0.000285858
2.3001e-05
-3.7487e-05
0.000287227
2.39493e-05
-2.09277e-05
0.000293074
2.50442e-05
-4.7773e-06
0.000299409
2.44871e-05
3.11126e-06
0.00030086
2.42959e-05
1.92569e-06
0.000296788
1.38375e-05
-3.91867e-06
0.000297489
-1.31954e-05
-7.72054e-06
0.000314661
-3.26798e-05
-4.95104e-06
0.000340801
-2.13546e-05
6.57997e-06
0.000351283
9.73028e-06
1.96874e-05
0.000337878
3.764e-05
2.69178e-05
0.000318044
5.05293e-05
2.31326e-05
0.000307211
4.55766e-05
1.50136e-05
0.000307036
3.00821e-05
7.9727e-06
0.00030942
1.26565e-05
3.68837e-06
-8.32518e-06
4.29762e-06
0.000350401
-2.53808e-05
3.64868e-06
0.000347532
-4.00216e-05
1.27051e-05
0.000351455
-3.85766e-05
1.73855e-05
0.000357142
-1.44837e-05
1.8571e-05
0.000353929
2.2594e-05
1.80638e-05
0.000344043
5.05155e-05
1.33397e-05
0.000342177
5.81316e-05
-2.5645e-06
0.000353417
4.48332e-05
-2.30022e-05
0.000364275
1.70441e-05
-2.75234e-05
0.000358964
-1.06659e-05
-6.18986e-06
0.00034011
-2.27491e-05
1.73243e-05
0.000322245
-1.51866e-05
2.26043e-05
0.00031097
1.08068e-06
1.34758e-05
0.000303337
9.11752e-06
4.64485e-06
0.000297751
6.77008e-06
2.13742e-06
0.000295167
7.50996e-06
1.95148e-06
0.000296169
1.7735e-05
-2.22543e-06
0.000300667
2.90633e-05
-1.67495e-05
0.00030878
3.50743e-05
-3.73146e-05
0.000319485
4.75836e-05
-5.00978e-05
0.000330114
6.86487e-05
-5.0729e-05
0.000336916
7.91262e-05
-4.3685e-05
0.00033948
6.88684e-05
-3.81404e-05
0.000339022
4.96873e-05
-3.86958e-05
0.00033597
4.08043e-05
-3.71346e-05
0.00033321
4.48375e-05
-2.78324e-05
0.000333077
4.66539e-05
-1.30883e-05
0.000336234
3.86794e-05
-3.39731e-08
0.000340665
3.01356e-05
7.33859e-06
0.000341127
2.23763e-05
8.68611e-06
0.000337285
4.54434e-06
1.87843e-06
0.00034061
-1.84636e-05
-8.15128e-06
0.000359588
-2.32899e-05
-1.14786e-05
0.000382133
-4.77224e-06
-1.61728e-06
0.000386941
2.67428e-05
1.08026e-05
0.000374556
5.47467e-05
1.43174e-05
0.000360079
6.15193e-05
1.07544e-05
0.000353577
4.5157e-05
6.50465e-06
0.000353993
1.87914e-05
2.88381e-06
-5.18699e-06
-2.84511e-07
0.00040039
-2.76703e-05
-2.99678e-06
0.000391502
-2.91181e-05
1.015e-05
0.000376095
-2.05145e-05
2.24397e-05
0.000362592
-1.38073e-06
2.91239e-05
0.000355679
2.17719e-05
3.09915e-05
0.000357577
3.66184e-05
2.29696e-05
0.000369662
4.04441e-05
1.26486e-06
0.000391565
3.45429e-05
-2.75222e-05
0.000414093
1.98953e-05
-4.47553e-05
0.000421026
-4.08067e-07
-3.29121e-05
0.000404014
-1.73541e-05
-2.57666e-06
0.000374937
-2.27869e-05
1.57947e-05
0.000349617
-1.39041e-05
1.43071e-05
0.000333395
2.80449e-06
7.89145e-06
0.000325105
1.53924e-05
2.93462e-06
0.000321356
2.25462e-05
-6.78e-06
0.000321242
3.04657e-05
-1.6549e-05
0.000326548
3.79243e-05
-2.36112e-05
0.000338509
3.94714e-05
-2.7394e-05
0.00035458
4.4974e-05
-2.62418e-05
0.000369246
5.93277e-05
-2.14818e-05
0.000377278
6.78529e-05
-1.25794e-05
0.000379293
6.21318e-05
-4.64292e-06
0.000378521
5.17144e-05
-7.74428e-06
0.000375563
5.15331e-05
-1.59936e-05
0.000373147
6.41981e-05
-1.7997e-05
0.000372705
7.39716e-05
-9.42283e-06
0.000374071
6.59532e-05
6.68251e-06
0.00037999
4.53823e-05
2.22335e-05
0.000387955
2.84312e-05
3.21448e-05
0.000389452
1.80667e-05
2.73817e-05
0.000383322
4.90319e-06
5.423e-06
0.000381668
-7.19707e-06
-1.90822e-05
0.000395614
-5.84966e-06
-2.86363e-05
0.000416009
1.21643e-05
-2.11783e-05
0.000424116
4.30906e-05
-1.04686e-05
0.000414788
6.6562e-05
-3.24861e-06
0.000400318
6.26304e-05
5.58605e-07
0.000394596
3.14067e-05
3.64992e-07
-6.84174e-06
-4.43286e-06
0.000446156
-3.22803e-05
-1.09191e-06
0.000436217
-2.8276e-05
3.75636e-06
0.000416218
-7.293e-06
1.61182e-05
0.000395732
1.49323e-05
2.99674e-05
0.000385126
2.9832e-05
3.69006e-05
0.000384466
3.49789e-05
2.8599e-05
0.000390463
3.42731e-05
1.96632e-06
0.000404305
2.9395e-05
-3.25448e-05
0.000427499
1.84387e-05
-5.64073e-05
0.000450292
3.48074e-06
-5.25789e-05
0.000454518
-1.04283e-05
-2.29711e-05
0.000434884
-2.08005e-05
4.83631e-06
0.000405489
-2.19101e-05
9.40963e-06
0.000383146
-9.70662e-06
3.73284e-06
0.000374011
9.14646e-06
4.28944e-06
0.00037292
2.69722e-05
7.28939e-06
0.000374748
4.01234e-05
6.95767e-06
0.000379055
4.62631e-05
6.07194e-06
0.000386798
4.33969e-05
1.08577e-05
0.000399307
4.03872e-05
2.38162e-05
0.000413823
4.43176e-05
3.61121e-05
0.00042165
5.07724e-05
3.83977e-05
0.000418913
5.43022e-05
2.85485e-05
0.000412645
5.46043e-05
8.97889e-06
0.000410956
5.79066e-05
-4.73716e-06
0.000415832
6.98059e-05
-1.81846e-06
0.000421972
8.30778e-05
1.40061e-05
0.000422859
8.17005e-05
3.19563e-05
0.000423634
5.72307e-05
4.23893e-05
0.000432097
2.72394e-05
4.69021e-05
0.000442471
1.41023e-05
4.44694e-05
0.000442446
1.37886e-05
2.53953e-05
0.000431235
1.23771e-05
-5.96805e-06
0.000424666
1.04589e-05
-3.18435e-05
0.000433134
1.25276e-05
-3.83835e-05
0.000447954
2.74334e-05
-3.15527e-05
0.000455816
4.67051e-05
-2.22033e-05
0.000454068
5.16081e-05
-1.34433e-05
0.000449369
3.04084e-05
-3.26583e-06
-7.56307e-06
1.00718e-06
0.000491352
-4.08481e-05
-4.21827e-06
0.00048176
-3.08034e-05
-1.76941e-06
0.000470961
-5.29377e-06
4.62384e-06
0.000460784
1.95806e-05
1.64548e-05
0.000450734
3.80198e-05
2.33737e-05
0.000440221
4.41769e-05
1.55658e-05
0.000432239
3.95984e-05
-9.42216e-06
0.00043307
2.64041e-05
-4.503e-05
0.000450338
4.51197e-06
-7.57705e-05
0.000481488
-1.8009e-05
-8.28484e-05
0.000505249
-2.91548e-05
-5.58189e-05
0.000499929
-2.74163e-05
-1.51705e-05
0.000468775
-1.97592e-05
6.02997e-06
0.000433334
-8.61277e-06
5.58745e-06
0.000411575
6.07391e-06
2.33606e-06
0.000407698
2.01409e-05
5.28062e-06
0.000414737
2.91836e-05
1.3597e-05
0.000427012
3.09038e-05
2.19998e-05
0.000441697
2.51787e-05
2.85381e-05
0.000456467
2.12428e-05
3.95084e-05
0.000465847
2.7289e-05
5.24524e-05
0.000464259
3.93136e-05
5.52746e-05
0.000454357
4.68183e-05
4.44243e-05
0.000446798
4.60954e-05
2.40167e-05
0.00044783
4.69218e-05
8.93657e-06
0.000456153
5.9567e-05
9.62361e-06
0.000465998
8.02468e-05
1.93478e-05
0.000471918
8.60738e-05
3.04898e-05
0.000475027
5.81094e-05
3.84269e-05
0.000482625
1.41695e-05
4.5354e-05
0.000496924
-8.95378e-06
5.08546e-05
0.000508846
-1.12831e-08
4.21266e-05
0.00050507
2.27102e-05
1.58109e-05
0.00048587
3.53139e-05
-1.23497e-05
0.000469147
3.59804e-05
-3.60815e-05
0.000466032
3.32723e-05
-4.52236e-05
0.000473479
3.08418e-05
-4.08731e-05
0.000484544
2.15034e-05
-3.20099e-05
0.000493699
-5.92001e-08
-2.06619e-05
-2.70527e-05
-9.50957e-06
0.000553151
-4.85374e-05
-1.58321e-05
0.000545964
-3.14674e-05
-6.6446e-07
0.000530581
-2.75537e-06
4.95367e-06
0.000517155
2.16644e-05
2.65064e-06
0.000513101
3.63053e-05
-2.97737e-06
0.000518508
4.04108e-05
-1.07573e-05
0.000527421
3.5201e-05
-2.02173e-05
0.000533575
2.11676e-05
-3.49232e-05
0.00053744
-4.29843e-06
-5.64042e-05
0.000545823
-3.55966e-05
-7.83705e-05
0.000560919
-5.55321e-05
-8.08127e-05
0.000572294
-5.05534e-05
-5.18614e-05
0.000567068
-2.81473e-05
-1.06264e-05
0.00054403
-5.05807e-06
1.65699e-05
0.000514575
5.69795e-06
2.39327e-05
0.00049411
3.44055e-06
1.76333e-05
0.000487669
-1.36384e-07
4.55947e-06
0.000490159
1.35262e-06
-5.32891e-06
0.000494467
4.83391e-06
-6.67161e-06
0.000496727
9.71702e-06
2.75026e-06
0.000494293
1.63542e-05
2.13683e-05
0.000487306
2.18412e-05
3.83079e-05
0.000480888
1.74604e-05
4.52194e-05
0.000481806
7.52991e-06
3.54096e-05
0.000491518
1.13075e-05
1.61491e-05
0.000506264
3.62606e-05
5.58373e-06
0.000521684
6.96189e-05
7.67828e-06
0.000532968
8.14633e-05
1.82453e-05
0.000537109
5.36064e-05
2.76031e-05
0.000537598
8.17756e-06
2.98446e-05
0.000543539
-1.85611e-05
3.07454e-05
0.000558049
-1.33645e-05
3.19674e-05
0.000569196
1.2286e-05
2.74414e-05
0.000564084
3.69866e-05
1.11449e-05
0.000547467
4.76886e-05
-1.64314e-05
0.000533462
4.68037e-05
-4.60271e-05
0.000526795
3.54064e-05
-5.93763e-05
0.00052723
1.3422e-05
-5.94316e-05
0.000535545
-1.58377e-05
-5.14837e-05
-4.21062e-05
-3.54613e-05
0.000598697
-3.90367e-05
-4.06365e-05
0.000598345
-2.63956e-05
-1.68842e-05
0.000596241
-1.74628e-06
7.29859e-06
0.000591188
2.1836e-05
2.53334e-05
0.000587811
3.66898e-05
2.61497e-05
0.000592127
3.81141e-05
9.07271e-06
0.000606664
2.8361e-05
-1.59977e-05
0.000628177
1.17803e-05
-3.68695e-05
0.00064797
-1.27249e-05
-4.67536e-05
0.000659508
-4.08871e-05
-5.5486e-05
0.000661566
-5.87601e-05
-6.66645e-05
0.000655743
-5.21498e-05
-6.59225e-05
0.000645471
-2.61068e-05
-4.43097e-05
0.000635129
-1.0776e-06
-1.16296e-05
0.000631371
2.64674e-06
1.58662e-05
0.000635602
-1.77303e-05
2.86368e-05
0.000640633
-3.75033e-05
2.37554e-05
0.000636392
-3.67472e-05
8.63117e-06
0.000617437
-1.75727e-05
-7.62464e-06
0.000590909
3.81651e-06
-1.58575e-05
0.000568887
1.45199e-05
-9.19827e-06
0.000557972
1.32959e-05
8.26716e-06
0.00055605
4.77175e-07
2.45576e-05
0.000559259
-1.28872e-05
2.67683e-05
0.000565256
-1.15785e-05
1.25749e-05
0.000575275
8.32153e-06
3.77751e-07
0.000589801
3.75528e-05
4.88439e-06
0.000604691
5.18636e-05
2.26464e-05
0.00061265
3.74853e-05
3.54849e-05
0.000609534
1.0512e-05
3.05747e-05
0.000601571
-7.63048e-06
1.85408e-05
0.000597569
-6.98505e-06
1.43115e-05
0.000599573
5.88328e-06
2.0236e-05
0.000603077
1.96159e-05
2.58278e-05
0.000607022
2.65774e-05
1.41331e-05
0.000612388
2.80035e-05
-1.87345e-05
0.000615026
2.3707e-05
-5.05332e-05
0.000611369
1.18943e-05
-6.58018e-05
0.000604797
-9.63014e-06
-6.59321e-05
-3.13003e-05
-5.75118e-05
0.000672971
-2.65714e-05
-7.65898e-05
0.000661784
-1.80327e-05
-5.90501e-05
0.000652872
1.51805e-06
-2.11114e-05
0.000649486
1.94553e-05
2.12273e-05
0.000654087