/*--------------------------------*- C++ -*----------------------------------*\
| =========                 |                                                 |
| \\      /  F ield         | OpenFOAM: The Open Source CFD Toolbox           |
|  \\    /   O peration     | Version:  2.3.0                                 |
|   \\  /    A nd           | Web:      www.OpenFOAM.org                      |
|    \\/     M anipulation  |                                                 |
\*---------------------------------------------------------------------------*/
FoamFile
{
    version     2.0;
    format      ascii;
    class       volScalarField;
    location    "200";
    object      pMean;
}
// * * * * * * * * * * * * * * * * * * * * * * * * * * * * * * * * * * * * * //

dimensions      [0 2 -2 0 0 0 0];

internalField   nonuniform List<scalar> 
60000
(
6.71963e-06
6.80722e-06
6.7678e-06
7.67809e-06
9.77079e-06
1.21558e-05
1.42739e-05
1.6121e-05
1.77938e-05
1.95569e-05
2.16257e-05
2.36334e-05
2.50219e-05
2.57958e-05
2.60213e-05
2.55509e-05
2.44972e-05
2.30597e-05
2.12359e-05
1.9407e-05
1.81201e-05
1.72773e-05
1.64485e-05
1.57861e-05
1.53925e-05
1.5193e-05
1.49807e-05
1.47217e-05
1.41306e-05
1.26365e-05
1.05525e-05
8.75591e-06
7.46907e-06
6.23668e-06
5.13589e-06
4.08405e-06
3.19403e-06
3.18073e-06
4.38759e-06
5.87613e-06
6.16337e-06
6.24284e-06
6.24095e-06
7.20575e-06
9.36247e-06
1.18174e-05
1.39864e-05
1.58709e-05
1.75741e-05
1.93618e-05
2.14271e-05
2.34313e-05
2.48035e-05
2.55373e-05
2.57162e-05
2.51953e-05
2.40826e-05
2.25934e-05
2.07206e-05
1.88514e-05
1.7547e-05
1.66934e-05
1.58391e-05
1.51683e-05
1.47814e-05
1.45983e-05
1.43637e-05
1.40832e-05
1.34888e-05
1.20085e-05
9.95612e-06
8.22397e-06
7.00176e-06
5.80409e-06
4.69397e-06
3.63106e-06
2.76165e-06
2.76415e-06
3.93919e-06
5.36715e-06
4.79429e-06
4.74028e-06
4.68514e-06
5.74147e-06
8.10364e-06
1.07416e-05
1.30334e-05
1.49924e-05
1.6735e-05
1.85538e-05
2.06672e-05
2.26751e-05
2.40047e-05
2.46616e-05
2.47743e-05
2.41815e-05
2.30081e-05
2.1457e-05
1.94943e-05
1.75317e-05
1.61737e-05
1.52891e-05
1.4404e-05
1.36886e-05
1.32529e-05
1.29944e-05
1.27369e-05
1.24706e-05
1.19012e-05
1.04534e-05
8.45549e-06
6.87279e-06
5.84327e-06
4.73395e-06
3.66103e-06
2.60795e-06
1.73588e-06
1.73268e-06
2.83954e-06
4.15595e-06
2.29529e-06
2.00699e-06
1.79287e-06
2.86263e-06
5.31422e-06
8.09681e-06
1.05591e-05
1.26435e-05
1.451e-05
1.64536e-05
1.86328e-05
2.06778e-05
2.20151e-05
2.2648e-05
2.27527e-05
2.21128e-05
2.07921e-05
1.907e-05
1.69613e-05
1.48248e-05
1.33584e-05
1.25194e-05
1.16832e-05
1.09096e-05
1.02912e-05
9.91668e-06
9.70915e-06
9.61405e-06
9.19236e-06
7.86467e-06
6.09637e-06
4.839e-06
4.09328e-06
3.07382e-06
1.94474e-06
8.23961e-07
-7.20612e-08
-1.59449e-07
7.45941e-07
1.83883e-06
-1.33779e-06
-1.78807e-06
-2.24651e-06
-1.4599e-06
7.53559e-07
3.46677e-06
5.8916e-06
7.94579e-06
9.90638e-06
1.19493e-05
1.41348e-05
1.62764e-05
1.77642e-05
1.85703e-05
1.88828e-05
1.83329e-05
1.69554e-05
1.52781e-05
1.33042e-05
1.12425e-05
9.75017e-06
8.86547e-06
7.90363e-06
6.72396e-06
5.55959e-06
4.79388e-06
4.67529e-06
4.91819e-06
4.83913e-06
3.9669e-06
2.75986e-06
2.00712e-06
1.50363e-06
4.69331e-07
-7.49699e-07
-1.90376e-06
-2.88328e-06
-3.106e-06
-2.48056e-06
-1.65482e-06
-5.72205e-06
-6.37208e-06
-7.32246e-06
-7.1731e-06
-5.56157e-06
-3.37285e-06
-1.30568e-06
5.75035e-07
2.6592e-06
4.80953e-06
7.07824e-06
9.4013e-06
1.12023e-05
1.22887e-05
1.28859e-05
1.2682e-05
1.19202e-05
1.08622e-05
9.43625e-06
7.79274e-06
6.30567e-06
5.04345e-06
3.52349e-06
1.67961e-06
-4.25974e-07
-2.05762e-06
-2.50538e-06
-2.15675e-06
-1.77444e-06
-1.75177e-06
-1.92011e-06
-1.8279e-06
-1.98531e-06
-3.00223e-06
-4.28995e-06
-5.37496e-06
-6.22156e-06
-6.63965e-06
-6.47987e-06
-5.9681e-06
-1.11846e-05
-1.17818e-05
-1.30789e-05
-1.37382e-05
-1.29167e-05
-1.12316e-05
-9.50898e-06
-7.69387e-06
-5.55554e-06
-3.33206e-06
-9.87791e-07
1.62328e-06
3.78226e-06
5.07206e-06
5.8168e-06
6.03618e-06
5.96144e-06
5.79184e-06
5.26706e-06
4.13357e-06
2.79557e-06
1.25365e-06
-7.26881e-07
-3.38539e-06
-6.58348e-06
-9.47837e-06
-1.08832e-05
-1.06543e-05
-9.63544e-06
-8.35354e-06
-7.12238e-06
-6.12797e-06
-5.8545e-06
-6.56791e-06
-7.68565e-06
-8.54804e-06
-9.31728e-06
-1.02479e-05
-1.10012e-05
-1.12829e-05
-1.59858e-05
-1.66512e-05
-1.80307e-05
-1.8885e-05
-1.83321e-05
-1.69765e-05
-1.55926e-05
-1.41812e-05
-1.25372e-05
-1.07794e-05
-8.8282e-06
-6.32554e-06
-3.63696e-06
-1.50582e-06
-6.23747e-08
6.12866e-07
7.7216e-07
6.59983e-07
1.52145e-07
-8.40503e-07
-2.21442e-06
-3.79459e-06
-5.95616e-06
-8.97921e-06
-1.25823e-05
-1.59088e-05
-1.76765e-05
-1.74927e-05
-1.58165e-05
-1.3377e-05
-1.08573e-05
-9.1664e-06
-8.7066e-06
-9.33721e-06
-1.02377e-05
-1.09076e-05
-1.1736e-05
-1.32729e-05
-1.48971e-05
-1.57726e-05
-1.87393e-05
-1.92186e-05
-2.01115e-05
-2.06088e-05
-2.02032e-05
-1.93561e-05
-1.84223e-05
-1.76871e-05
-1.68169e-05
-1.57659e-05
-1.43493e-05
-1.19527e-05
-8.56015e-06
-5.49465e-06
-3.61007e-06
-3.068e-06
-3.52252e-06
-4.39457e-06
-5.4107e-06
-6.78934e-06
-8.39309e-06
-9.84684e-06
-1.14923e-05
-1.36372e-05
-1.62919e-05
-1.88395e-05
-2.02151e-05
-1.99034e-05
-1.81372e-05
-1.54694e-05
-1.26939e-05
-1.08649e-05
-1.04962e-05
-1.11788e-05
-1.18652e-05
-1.24722e-05
-1.3594e-05
-1.53786e-05
-1.71648e-05
-1.82016e-05
-1.94226e-05
-1.98128e-05
-2.04574e-05
-2.11301e-05
-2.13971e-05
-2.11569e-05
-2.06912e-05
-1.99827e-05
-1.93269e-05
-1.8539e-05
-1.72361e-05
-1.50596e-05
-1.19407e-05
-9.10542e-06
-7.55958e-06
-7.44229e-06
-8.39321e-06
-9.82214e-06
-1.13604e-05
-1.28937e-05
-1.42772e-05
-1.49981e-05
-1.52323e-05
-1.56343e-05
-1.62984e-05
-1.73399e-05
-1.8173e-05
-1.79476e-05
-1.65821e-05
-1.4639e-05
-1.27342e-05
-1.17215e-05
-1.18012e-05
-1.25721e-05
-1.32669e-05
-1.39394e-05
-1.49716e-05
-1.63327e-05
-1.77062e-05
-1.88467e-05
-2.09568e-05
-2.14841e-05
-2.20732e-05
-2.26482e-05
-2.2845e-05
-2.26566e-05
-2.21044e-05
-2.15147e-05
-2.10682e-05
-2.05558e-05
-1.98551e-05
-1.85504e-05
-1.62602e-05
-1.39405e-05
-1.24622e-05
-1.20227e-05
-1.25449e-05
-1.38887e-05
-1.54275e-05
-1.67946e-05
-1.75192e-05
-1.75433e-05
-1.66959e-05
-1.56288e-05
-1.48661e-05
-1.46348e-05
-1.4926e-05
-1.49508e-05
-1.42639e-05
-1.32943e-05
-1.25663e-05
-1.24551e-05
-1.31619e-05
-1.44809e-05
-1.57868e-05
-1.67636e-05
-1.76707e-05
-1.84701e-05
-1.92752e-05
-2.0189e-05
-2.32292e-05
-2.3767e-05
-2.40608e-05
-2.4049e-05
-2.37054e-05
-2.32457e-05
-2.28136e-05
-2.23836e-05
-2.20141e-05
-2.1507e-05
-2.08166e-05
-1.95799e-05
-1.77176e-05
-1.56995e-05
-1.4216e-05
-1.33869e-05
-1.3144e-05
-1.37161e-05
-1.48324e-05
-1.59295e-05
-1.66704e-05
-1.67165e-05
-1.58926e-05
-1.44931e-05
-1.32041e-05
-1.24415e-05
-1.2576e-05
-1.30145e-05
-1.31736e-05
-1.30825e-05
-1.3184e-05
-1.36526e-05
-1.45856e-05
-1.61986e-05
-1.80478e-05
-1.94287e-05
-2.04432e-05
-2.12198e-05
-2.18497e-05
-2.25905e-05
-2.36716e-05
-2.41366e-05
-2.44632e-05
-2.4337e-05
-2.40309e-05
-2.37324e-05
-2.34297e-05
-2.30205e-05
-2.22608e-05
-2.09797e-05
-1.95453e-05
-1.79397e-05
-1.61216e-05
-1.4463e-05
-1.31154e-05
-1.22209e-05
-1.16604e-05
-1.18153e-05
-1.2611e-05
-1.3412e-05
-1.39695e-05
-1.4152e-05
-1.3614e-05
-1.26121e-05
-1.1408e-05
-1.05506e-05
-1.06447e-05
-1.13787e-05
-1.20711e-05
-1.28371e-05
-1.37316e-05
-1.44907e-05
-1.52178e-05
-1.64706e-05
-1.80348e-05
-1.95025e-05
-2.08316e-05
-2.18114e-05
-2.25562e-05
-2.31982e-05
-2.35249e-05
-2.34938e-05
-2.3523e-05
-2.34199e-05
-2.31064e-05
-2.29381e-05
-2.28964e-05
-2.26419e-05
-2.1966e-05
-2.07872e-05
-1.94441e-05
-1.7985e-05
-1.62026e-05
-1.44574e-05
-1.30413e-05
-1.21623e-05
-1.1637e-05
-1.16164e-05
-1.22241e-05
-1.30493e-05
-1.36193e-05
-1.38374e-05
-1.33853e-05
-1.2513e-05
-1.14811e-05
-1.06757e-05
-1.0692e-05
-1.14934e-05
-1.23661e-05
-1.3215e-05
-1.41698e-05
-1.51054e-05
-1.60826e-05
-1.71804e-05
-1.8471e-05
-1.97745e-05
-2.11856e-05
-2.23178e-05
-2.30306e-05
-2.34273e-05
-2.3267e-05
-2.27443e-05
-2.24252e-05
-2.20161e-05
-2.15025e-05
-2.11639e-05
-2.11345e-05
-2.11696e-05
-2.10035e-05
-2.03679e-05
-1.94052e-05
-1.83775e-05
-1.71371e-05
-1.58712e-05
-1.48647e-05
-1.42208e-05
-1.39118e-05
-1.38958e-05
-1.44663e-05
-1.52909e-05
-1.57904e-05
-1.58439e-05
-1.52457e-05
-1.4154e-05
-1.30451e-05
-1.24771e-05
-1.26368e-05
-1.34873e-05
-1.45865e-05
-1.5703e-05
-1.69535e-05
-1.81887e-05
-1.92446e-05
-1.99041e-05
-2.05391e-05
-2.13942e-05
-2.23753e-05
-2.32728e-05
-2.36763e-05
-2.36649e-05
-2.31714e-05
-2.25058e-05
-2.21246e-05
-2.18724e-05
-2.15525e-05
-2.12131e-05
-2.10872e-05
-2.11836e-05
-2.11492e-05
-2.07381e-05
-1.99524e-05
-1.91635e-05
-1.83651e-05
-1.77114e-05
-1.72507e-05
-1.70229e-05
-1.69993e-05
-1.72071e-05
-1.77433e-05
-1.82784e-05
-1.86192e-05
-1.85535e-05
-1.79994e-05
-1.69891e-05
-1.58832e-05
-1.51678e-05
-1.52105e-05
-1.59824e-05
-1.70884e-05
-1.83375e-05
-1.94981e-05
-2.06444e-05
-2.15704e-05
-2.21387e-05
-2.23241e-05
-2.25868e-05
-2.32245e-05
-2.38449e-05
-2.39842e-05
-2.3742e-05
-2.05401e-05
-2.03057e-05
-2.02837e-05
-2.04462e-05
-2.05768e-05
-2.06064e-05
-2.05633e-05
-2.05256e-05
-2.04581e-05
-2.03213e-05
-2.00805e-05
-1.97432e-05
-1.92971e-05
-1.89273e-05
-1.87635e-05
-1.87725e-05
-1.87062e-05
-1.8749e-05
-1.9032e-05
-1.92545e-05
-1.93173e-05
-1.9046e-05
-1.83918e-05
-1.74961e-05
-1.65989e-05
-1.59664e-05
-1.57465e-05
-1.61565e-05
-1.68042e-05
-1.7508e-05
-1.82172e-05
-1.90516e-05
-1.99327e-05
-2.06085e-05
-2.08667e-05
-2.09952e-05
-2.11692e-05
-2.13341e-05
-2.1158e-05
-2.09027e-05
-1.57632e-05
-1.56258e-05
-1.55722e-05
-1.5503e-05
-1.55302e-05
-1.56202e-05
-1.56049e-05
-1.54913e-05
-1.53143e-05
-1.52106e-05
-1.51301e-05
-1.50327e-05
-1.492e-05
-1.50043e-05
-1.53411e-05
-1.57249e-05
-1.60748e-05
-1.62825e-05
-1.6578e-05
-1.68325e-05
-1.68999e-05
-1.68206e-05
-1.65376e-05
-1.60806e-05
-1.55361e-05
-1.49581e-05
-1.45413e-05
-1.44527e-05
-1.45305e-05
-1.47066e-05
-1.50953e-05
-1.54614e-05
-1.58126e-05
-1.61953e-05
-1.6335e-05
-1.62821e-05
-1.63453e-05
-1.6367e-05
-1.61905e-05
-1.59765e-05
-1.34833e-05
-1.30357e-05
-1.27404e-05
-1.25685e-05
-1.23701e-05
-1.20706e-05
-1.16923e-05
-1.13049e-05
-1.09483e-05
-1.05641e-05
-1.03295e-05
-1.02294e-05
-1.01252e-05
-1.02272e-05
-1.06873e-05
-1.12518e-05
-1.17792e-05
-1.23737e-05
-1.31697e-05
-1.39352e-05
-1.46028e-05
-1.52802e-05
-1.57147e-05
-1.57481e-05
-1.55449e-05
-1.51918e-05
-1.47862e-05
-1.44987e-05
-1.42386e-05
-1.4092e-05
-1.42883e-05
-1.45515e-05
-1.46365e-05
-1.46273e-05
-1.4573e-05
-1.44234e-05
-1.43369e-05
-1.4358e-05
-1.42316e-05
-1.3926e-05
-1.39147e-05
-1.38513e-05
-1.3803e-05
-1.36838e-05
-1.35026e-05
-1.32411e-05
-1.29177e-05
-1.24845e-05
-1.19477e-05
-1.12614e-05
-1.07564e-05
-1.05478e-05
-1.0288e-05
-9.99203e-06
-9.85617e-06
-9.81397e-06
-9.71133e-06
-9.61902e-06
-9.71418e-06
-9.99447e-06
-1.04408e-05
-1.1147e-05
-1.18076e-05
-1.21516e-05
-1.22518e-05
-1.22942e-05
-1.23966e-05
-1.25885e-05
-1.27394e-05
-1.29724e-05
-1.32971e-05
-1.3544e-05
-1.36847e-05
-1.38193e-05
-1.39048e-05
-1.37565e-05
-1.36592e-05
-1.37526e-05
-1.38696e-05
-1.39352e-05
-8.4213e-06
-8.42029e-06
-8.3659e-06
-8.39832e-06
-8.3159e-06
-8.06852e-06
-7.69901e-06
-7.20747e-06
-6.80083e-06
-6.45559e-06
-6.16368e-06
-5.98471e-06
-5.6907e-06
-5.27751e-06
-4.93528e-06
-4.81967e-06
-4.68781e-06
-4.60791e-06
-4.73461e-06
-4.97669e-06
-5.25991e-06
-5.64691e-06
-5.95854e-06
-6.08128e-06
-6.07704e-06
-6.11172e-06
-6.17172e-06
-6.39145e-06
-6.61392e-06
-6.88208e-06
-7.2311e-06
-7.47501e-06
-7.64e-06
-7.80448e-06
-7.90987e-06
-7.84525e-06
-7.77945e-06
-7.85184e-06
-7.97725e-06
-8.19883e-06
-7.28002e-06
-7.36448e-06
-7.3746e-06
-7.27358e-06
-7.00863e-06
-6.70712e-06
-6.38797e-06
-6.07953e-06
-5.81736e-06
-5.5805e-06
-5.36705e-06
-5.27758e-06
-5.22536e-06
-5.15678e-06
-5.29109e-06
-5.65394e-06
-5.94966e-06
-6.04415e-06
-6.06013e-06
-6.12142e-06
-6.21803e-06
-6.3257e-06
-6.45703e-06
-6.40136e-06
-6.16375e-06
-5.92265e-06
-5.76958e-06
-5.87028e-06
-6.14847e-06
-6.50464e-06
-6.98684e-06
-7.41382e-06
-7.50037e-06
-7.41214e-06
-7.30651e-06
-7.12478e-06
-7.00528e-06
-6.92719e-06
-6.90727e-06
-7.07772e-06
-6.56273e-06
-6.64373e-06
-6.62498e-06
-6.59257e-06
-6.49026e-06
-6.31829e-06
-6.10956e-06
-5.86533e-06
-5.67417e-06
-5.52896e-06
-5.35235e-06
-5.24779e-06
-5.32496e-06
-5.40775e-06
-5.45534e-06
-5.65537e-06
-5.83087e-06
-5.85142e-06
-5.75646e-06
-5.62308e-06
-5.53213e-06
-5.39966e-06
-5.30962e-06
-5.2292e-06
-5.05682e-06
-4.90409e-06
-4.79344e-06
-4.83376e-06
-5.09834e-06
-5.40321e-06
-5.80592e-06
-6.2851e-06
-6.49714e-06
-6.49239e-06
-6.40034e-06
-6.26633e-06
-6.1904e-06
-6.1937e-06
-6.27453e-06
-6.39484e-06
-4.23259e-06
-4.47084e-06
-4.57014e-06
-4.67316e-06
-4.79161e-06
-4.74479e-06
-4.60263e-06
-4.50682e-06
-4.45664e-06
-4.44716e-06
-4.38764e-06
-4.3109e-06
-4.31803e-06
-4.38942e-06
-4.43964e-06
-4.50452e-06
-4.57118e-06
-4.58179e-06
-4.42531e-06
-4.31529e-06
-4.27909e-06
-4.0856e-06
-3.89282e-06
-3.7108e-06
-3.47054e-06
-3.26253e-06
-3.1236e-06
-3.10912e-06
-3.32978e-06
-3.65075e-06
-3.96765e-06
-4.36959e-06
-4.63067e-06
-4.58803e-06
-4.45525e-06
-4.24468e-06
-4.04112e-06
-3.94194e-06
-3.9604e-06
-4.03602e-06
-6.15802e-06
-6.36994e-06
-6.50735e-06
-6.66769e-06
-6.87375e-06
-6.98322e-06
-7.01645e-06
-6.99709e-06
-6.9545e-06
-6.87583e-06
-6.83262e-06
-6.7537e-06
-6.75965e-06
-6.76961e-06
-6.72283e-06
-6.68516e-06
-6.66195e-06
-6.64467e-06
-6.53189e-06
-6.39219e-06
-6.31031e-06
-6.16665e-06
-5.96309e-06
-5.85532e-06
-5.76896e-06
-5.62335e-06
-5.48795e-06
-5.38347e-06
-5.4142e-06
-5.551e-06
-5.70033e-06
-5.94055e-06
-6.22258e-06
-6.27323e-06
-6.15198e-06
-6.03014e-06
-5.92938e-06
-5.93147e-06
-6.03199e-06
-6.03858e-06
3.01679e-05
2.98714e-05
2.8577e-05
2.61068e-05
2.3412e-05
2.12065e-05
1.96055e-05
1.8384e-05
1.73587e-05
1.62918e-05
1.51998e-05
1.41064e-05
1.31322e-05
1.22601e-05
1.15249e-05
1.12154e-05
1.17366e-05
1.27745e-05
1.41982e-05
1.61786e-05
1.84803e-05
2.04327e-05
2.13752e-05
2.13415e-05
2.10579e-05
2.11238e-05
2.19862e-05
2.35291e-05
2.48505e-05
2.50507e-05
2.45932e-05
2.44052e-05
2.45295e-05
2.45611e-05
2.44871e-05
2.51221e-05
2.66931e-05
2.84522e-05
2.95083e-05
2.99975e-05
2.93774e-05
2.91171e-05
2.79061e-05
2.55195e-05
2.29312e-05
2.08257e-05
1.9267e-05
1.80537e-05
1.70112e-05
1.59364e-05
1.48711e-05
1.3781e-05
1.27828e-05
1.18693e-05
1.10796e-05
1.07163e-05
1.1184e-05
1.21903e-05
1.35902e-05
1.55705e-05
1.78522e-05
1.97557e-05
2.06868e-05
2.06878e-05
2.04338e-05
2.05334e-05
2.14013e-05
2.29467e-05
2.42712e-05
2.44763e-05
2.40207e-05
2.38333e-05
2.39793e-05
2.40307e-05
2.394e-05
2.45537e-05
2.61042e-05
2.7902e-05
2.89233e-05
2.92863e-05
2.70797e-05
2.70166e-05
2.59015e-05
2.35147e-05
2.08777e-05
1.87946e-05
1.73736e-05
1.6328e-05
1.54094e-05
1.44283e-05
1.34249e-05
1.23562e-05
1.12966e-05
1.03753e-05
9.66353e-06
9.36319e-06
9.82999e-06
1.07697e-05
1.21358e-05
1.40419e-05
1.61994e-05
1.79378e-05
1.8732e-05
1.8742e-05
1.86336e-05
1.8925e-05
1.99656e-05
2.15973e-05
2.29144e-05
2.31254e-05
2.27285e-05
2.2557e-05
2.27032e-05
2.2733e-05
2.2549e-05
2.29955e-05
2.43272e-05
2.58245e-05
2.65823e-05
2.6864e-05
2.27234e-05
2.27458e-05
2.16124e-05
1.91155e-05
1.63684e-05
1.43841e-05
1.32217e-05
1.24773e-05
1.18562e-05
1.11307e-05
1.03061e-05
9.23953e-06
8.18064e-06
7.45531e-06
7.17978e-06
7.18534e-06
7.70843e-06
8.60006e-06
9.8314e-06
1.1464e-05
1.31894e-05
1.44888e-05
1.49534e-05
1.48645e-05
1.485e-05
1.54017e-05
1.6855e-05
1.87617e-05
2.02143e-05
2.05218e-05
2.02518e-05
2.00879e-05
2.00778e-05
2.00084e-05
1.96243e-05
1.95532e-05
2.01168e-05
2.09833e-05
2.17183e-05
2.23302e-05
1.66873e-05
1.64951e-05
1.52334e-05
1.27882e-05
1.0203e-05
8.39569e-06
7.3681e-06
6.82907e-06
6.54043e-06
6.10536e-06
5.4129e-06
4.41618e-06
3.61283e-06
3.36289e-06
3.46509e-06
3.71644e-06
4.22397e-06
4.97167e-06
6.02223e-06
7.331e-06
8.58019e-06
9.45213e-06
9.75016e-06
9.68265e-06
9.58929e-06
1.01658e-05
1.18736e-05
1.41897e-05
1.59265e-05
1.6363e-05
1.61455e-05
1.59624e-05
1.58638e-05
1.57417e-05
1.51563e-05
1.44914e-05
1.41364e-05
1.45208e-05
1.55433e-05
1.63833e-05
9.34866e-06
9.29579e-06
8.06531e-06
5.77794e-06
3.56387e-06
2.0902e-06
1.26166e-06
8.88249e-07
9.10787e-07
5.67427e-07
-2.88001e-07
-1.15476e-06
-1.56213e-06
-1.72865e-06
-1.76291e-06
-1.70925e-06
-1.25219e-06
-3.56337e-07
8.38743e-07
2.133e-06
3.25771e-06
4.01759e-06
4.40055e-06
4.34856e-06
4.13972e-06
4.37313e-06
5.76321e-06
8.05164e-06
1.00581e-05
1.08739e-05
1.0806e-05
1.06059e-05
1.04271e-05
1.01674e-05
9.49517e-06
8.55885e-06
7.89038e-06
8.0248e-06
8.63044e-06
9.04462e-06
1.93805e-06
1.73294e-06
3.59461e-07
-1.79978e-06
-3.26623e-06
-3.87509e-06
-4.11262e-06
-4.24335e-06
-4.49494e-06
-5.32016e-06
-6.29752e-06
-7.46239e-06
-8.42204e-06
-8.95289e-06
-9.04748e-06
-8.58302e-06
-7.45505e-06
-5.89806e-06
-4.24791e-06
-2.69366e-06
-1.52143e-06
-9.25994e-07
-6.59848e-07
-8.56763e-07
-1.5369e-06
-2.0157e-06
-1.17724e-06
1.0038e-06
3.31101e-06
4.61344e-06
4.9478e-06
4.8016e-06
4.49248e-06
4.16914e-06
3.63349e-06
2.79973e-06
1.97303e-06
1.37573e-06
1.2264e-06
1.48988e-06
-5.0262e-06
-5.86916e-06
-7.55344e-06
-9.30753e-06
-9.95555e-06
-9.6872e-06
-9.47361e-06
-9.75487e-06
-1.04992e-05
-1.17669e-05
-1.36544e-05
-1.5721e-05
-1.70895e-05
-1.73029e-05
-1.65605e-05
-1.50132e-05
-1.30143e-05
-1.09277e-05
-9.01873e-06
-7.47093e-06
-6.57282e-06
-6.30536e-06
-6.27487e-06
-6.65469e-06
-7.54094e-06
-7.98323e-06
-7.23478e-06
-5.22777e-06
-2.72433e-06
-1.03892e-06
-3.19643e-07
-2.35703e-07
-5.63562e-07
-9.18832e-07
-1.17579e-06
-1.60123e-06
-2.49227e-06
-3.67853e-06
-4.57041e-06
-4.87416e-06
-1.15479e-05
-1.25393e-05
-1.37249e-05
-1.46232e-05
-1.44858e-05
-1.38638e-05
-1.38812e-05
-1.46304e-05
-1.55624e-05
-1.68532e-05
-1.8811e-05
-2.08537e-05
-2.1982e-05
-2.17979e-05
-2.08113e-05
-1.95491e-05
-1.7878e-05
-1.60115e-05
-1.42272e-05
-1.28466e-05
-1.21465e-05
-1.19161e-05
-1.16486e-05
-1.14404e-05
-1.16516e-05
-1.17846e-05
-1.11748e-05
-9.58874e-06
-7.50712e-06
-5.72102e-06
-4.68959e-06
-4.45703e-06
-4.62786e-06
-4.86925e-06
-4.8144e-06
-4.63291e-06
-5.22807e-06
-6.89056e-06
-8.82028e-06
-1.04337e-05
-1.38859e-05
-1.49759e-05
-1.6155e-05
-1.69699e-05
-1.68182e-05
-1.62983e-05
-1.62243e-05
-1.67273e-05
-1.7262e-05
-1.80264e-05
-1.94129e-05
-2.11052e-05
-2.19596e-05
-2.18911e-05
-2.13319e-05
-2.07892e-05
-2.01169e-05
-1.9295e-05
-1.82156e-05
-1.72988e-05
-1.68359e-05
-1.6431e-05
-1.56221e-05
-1.47738e-05
-1.43711e-05
-1.43032e-05
-1.38579e-05
-1.25649e-05
-1.08271e-05
-9.46839e-06
-8.74322e-06
-8.75167e-06
-9.27533e-06
-9.67479e-06
-9.13671e-06
-8.28241e-06
-8.02071e-06
-9.06211e-06
-1.08896e-05
-1.2665e-05
-1.63073e-05
-1.79363e-05
-1.93749e-05
-2.01909e-05
-1.97913e-05
-1.8875e-05
-1.84951e-05
-1.85417e-05
-1.86466e-05
-1.89442e-05
-1.96513e-05
-2.06528e-05
-2.13349e-05
-2.13445e-05
-2.12075e-05
-2.10948e-05
-2.11713e-05
-2.13034e-05
-2.10662e-05
-2.06366e-05
-2.02119e-05
-1.95651e-05
-1.84499e-05
-1.73524e-05
-1.66966e-05
-1.64518e-05
-1.61049e-05
-1.5107e-05
-1.37951e-05
-1.3014e-05
-1.29126e-05
-1.35347e-05
-1.4559e-05
-1.49327e-05
-1.40707e-05
-1.2566e-05
-1.15138e-05
-1.15498e-05
-1.27892e-05
-1.4582e-05
-1.8408e-05
-1.99866e-05
-2.1486e-05
-2.22543e-05
-2.18034e-05
-2.07505e-05
-1.99539e-05
-1.96815e-05
-1.95548e-05
-1.95595e-05
-1.97929e-05
-2.01804e-05
-2.04459e-05
-2.03545e-05
-2.00962e-05
-1.98666e-05
-1.99384e-05
-2.03161e-05
-2.03707e-05
-2.00285e-05
-1.96997e-05
-1.94895e-05
-1.90963e-05
-1.85923e-05
-1.81157e-05
-1.78125e-05
-1.76554e-05
-1.72742e-05
-1.67523e-05
-1.6771e-05
-1.7318e-05
-1.81893e-05
-1.90892e-05
-1.93272e-05
-1.84454e-05
-1.69767e-05
-1.55843e-05
-1.50721e-05
-1.56155e-05
-1.69521e-05
-1.85843e-05
-1.95693e-05
-2.10428e-05
-2.20332e-05
-2.18777e-05
-2.12798e-05
-2.06352e-05
-2.03314e-05
-2.00919e-05
-1.98021e-05
-1.96806e-05
-1.96184e-05
-1.93889e-05
-1.9111e-05
-1.87373e-05
-1.82366e-05
-1.78745e-05
-1.78149e-05
-1.78319e-05
-1.79379e-05
-1.82845e-05
-1.88708e-05
-1.93644e-05
-1.96058e-05
-1.95332e-05
-1.9454e-05
-1.96293e-05
-2.00424e-05
-2.04445e-05
-2.11e-05
-2.18077e-05
-2.24192e-05
-2.28016e-05
-2.26576e-05
-2.19983e-05
-2.09273e-05
-1.96989e-05
-1.86216e-05
-1.81286e-05
-1.81188e-05
-1.86502e-05
-1.88796e-05
-1.97358e-05
-2.04601e-05
-2.05482e-05
-2.01192e-05
-1.96656e-05
-1.9252e-05
-1.88532e-05
-1.83722e-05
-1.82606e-05
-1.83288e-05
-1.81644e-05
-1.79264e-05
-1.78429e-05
-1.77335e-05
-1.76418e-05
-1.7865e-05
-1.85164e-05
-1.92563e-05
-2.01485e-05
-2.1128e-05
-2.19196e-05
-2.241e-05
-2.24555e-05
-2.23926e-05
-2.28523e-05
-2.37222e-05
-2.44516e-05
-2.48084e-05
-2.49238e-05
-2.49262e-05
-2.47691e-05
-2.45188e-05
-2.40368e-05
-2.34324e-05
-2.2372e-05
-2.10495e-05
-1.97686e-05
-1.89425e-05
-1.90492e-05
-1.86611e-05
-1.87218e-05
-1.87962e-05
-1.84317e-05
-1.77776e-05
-1.70921e-05
-1.65532e-05
-1.61438e-05
-1.5675e-05
-1.57749e-05
-1.62063e-05
-1.65798e-05
-1.68958e-05
-1.73164e-05
-1.77596e-05
-1.80818e-05
-1.85907e-05
-1.9451e-05
-2.03975e-05
-2.13815e-05
-2.22217e-05
-2.27509e-05
-2.30723e-05
-2.29716e-05
-2.26476e-05
-2.26336e-05
-2.29688e-05
-2.31518e-05
-2.32084e-05
-2.3295e-05
-2.35897e-05
-2.4013e-05
-2.41051e-05
-2.37953e-05
-2.32952e-05
-2.25748e-05
-2.15443e-05
-2.0422e-05
-1.96326e-05
-1.79132e-05
-1.74252e-05
-1.69948e-05
-1.67226e-05
-1.62595e-05
-1.55582e-05
-1.48433e-05
-1.43596e-05
-1.41835e-05
-1.41781e-05
-1.4376e-05
-1.48868e-05
-1.53465e-05
-1.58446e-05
-1.6601e-05
-1.72363e-05
-1.77238e-05
-1.82607e-05
-1.90643e-05
-1.98826e-05
-2.0686e-05
-2.1271e-05
-2.15711e-05
-2.15275e-05
-2.12603e-05
-2.09214e-05
-2.06098e-05
-2.05536e-05
-2.04159e-05
-2.04444e-05
-2.07986e-05
-2.13587e-05
-2.18043e-05
-2.18951e-05
-2.14741e-05
-2.09506e-05
-2.03632e-05
-1.9604e-05
-1.89228e-05
-1.8449e-05
-1.74632e-05
-1.70729e-05
-1.67467e-05
-1.65961e-05
-1.64274e-05
-1.62673e-05
-1.60061e-05
-1.57582e-05
-1.55313e-05
-1.53948e-05
-1.54664e-05
-1.57475e-05
-1.60525e-05
-1.64859e-05
-1.71296e-05
-1.78942e-05
-1.84688e-05
-1.90439e-05
-1.97837e-05
-2.05277e-05
-2.10156e-05
-2.13074e-05
-2.12728e-05
-2.11999e-05
-2.12265e-05
-2.1045e-05
-2.08073e-05
-2.0592e-05
-2.04419e-05
-2.04109e-05
-2.05449e-05
-2.07687e-05
-2.09766e-05
-2.09208e-05
-2.0515e-05
-1.99783e-05
-1.9351e-05
-1.8759e-05
-1.82399e-05
-1.78416e-05
-1.5428e-05
-1.50536e-05
-1.48848e-05
-1.48833e-05
-1.49486e-05
-1.49746e-05
-1.49232e-05
-1.47457e-05
-1.43933e-05
-1.3989e-05
-1.3783e-05
-1.37225e-05
-1.38103e-05
-1.41033e-05
-1.4796e-05
-1.56813e-05
-1.64312e-05
-1.70544e-05
-1.77802e-05
-1.85348e-05
-1.92077e-05
-1.97319e-05
-1.9806e-05
-1.97088e-05
-1.97329e-05
-1.97405e-05
-1.96975e-05
-1.9734e-05
-1.96914e-05
-1.9616e-05
-1.9533e-05
-1.94479e-05
-1.93641e-05
-1.90953e-05
-1.84825e-05
-1.78667e-05
-1.73996e-05
-1.6992e-05
-1.65036e-05
-1.59509e-05
-1.73097e-05
-1.65069e-05
-1.5974e-05
-1.56417e-05
-1.53545e-05
-1.50164e-05
-1.45373e-05
-1.40146e-05
-1.34546e-05
-1.29122e-05
-1.25513e-05
-1.23739e-05
-1.21855e-05
-1.21785e-05
-1.26089e-05
-1.33802e-05
-1.42382e-05
-1.51311e-05
-1.61009e-05
-1.70634e-05
-1.79885e-05
-1.87776e-05
-1.90753e-05
-1.89333e-05
-1.88241e-05
-1.87153e-05
-1.86515e-05
-1.87292e-05
-1.87356e-05
-1.88206e-05
-1.90297e-05
-1.92056e-05
-1.94092e-05
-1.95473e-05
-1.94093e-05
-1.9179e-05
-1.90608e-05
-1.89929e-05
-1.86977e-05
-1.8112e-05
-1.9e-05
-1.84968e-05
-1.80954e-05
-1.77037e-05
-1.72635e-05
-1.66564e-05
-1.58353e-05
-1.50572e-05
-1.44039e-05
-1.38896e-05
-1.35682e-05
-1.34126e-05
-1.31706e-05
-1.29122e-05
-1.28923e-05
-1.31055e-05
-1.33651e-05
-1.37205e-05
-1.42861e-05
-1.5037e-05
-1.59026e-05
-1.68511e-05
-1.74706e-05
-1.76155e-05
-1.76197e-05
-1.76322e-05
-1.76211e-05
-1.75975e-05
-1.74905e-05
-1.7499e-05
-1.76727e-05
-1.7829e-05
-1.80001e-05
-1.82524e-05
-1.84558e-05
-1.86048e-05
-1.87515e-05
-1.90172e-05
-1.92584e-05
-1.92869e-05
-1.25776e-05
-1.23813e-05
-1.21706e-05
-1.19345e-05
-1.15506e-05
-1.10904e-05
-1.05756e-05
-9.95744e-06
-9.40386e-06
-8.87412e-06
-8.42794e-06
-8.1539e-06
-7.73598e-06
-7.21319e-06
-6.91215e-06
-6.81157e-06
-6.74519e-06
-6.65421e-06
-6.79245e-06
-7.06679e-06
-7.44567e-06
-7.9844e-06
-8.50335e-06
-8.78622e-06
-8.91257e-06
-9.03716e-06
-9.18611e-06
-9.44488e-06
-9.63679e-06
-9.85697e-06
-1.02329e-05
-1.05809e-05
-1.08891e-05
-1.12958e-05
-1.16908e-05
-1.19007e-05
-1.2012e-05
-1.21768e-05
-1.23875e-05
-1.25741e-05
-6.33277e-06
-6.31733e-06
-6.1761e-06
-5.95592e-06
-5.63083e-06
-5.29667e-06
-4.91919e-06
-4.55689e-06
-4.2402e-06
-4.0345e-06
-3.95968e-06
-4.0215e-06
-4.1433e-06
-4.28998e-06
-4.5739e-06
-4.96423e-06
-5.29299e-06
-5.42383e-06
-5.49196e-06
-5.63231e-06
-5.8601e-06
-6.16078e-06
-6.4167e-06
-6.4536e-06
-6.30132e-06
-6.17627e-06
-6.0288e-06
-5.92556e-06
-5.85493e-06
-5.80247e-06
-5.93985e-06
-6.12132e-06
-6.09841e-06
-6.0402e-06
-6.00099e-06
-5.8799e-06
-5.80183e-06
-5.83455e-06
-5.95722e-06
-6.14038e-06
-7.05544e-06
-7.10168e-06
-7.02724e-06
-7.03938e-06
-6.99524e-06
-6.77925e-06
-6.5752e-06
-6.39534e-06
-6.29308e-06
-6.29487e-06
-6.28007e-06
-6.32995e-06
-6.43416e-06
-6.54944e-06
-6.7718e-06
-7.13875e-06
-7.47144e-06
-7.66956e-06
-7.67816e-06
-7.66681e-06
-7.70453e-06
-7.72396e-06
-7.75293e-06
-7.72331e-06
-7.54464e-06
-7.35464e-06
-7.14891e-06
-7.06208e-06
-7.0931e-06
-7.16789e-06
-7.36415e-06
-7.65837e-06
-7.69456e-06
-7.58358e-06
-7.45399e-06
-7.256e-06
-7.10597e-06
-6.95003e-06
-6.87588e-06
-6.9439e-06
-5.72048e-06
-5.84511e-06
-5.8642e-06
-5.92458e-06
-6.05389e-06
-6.03e-06
-5.96578e-06
-5.89037e-06
-5.85133e-06
-5.81328e-06
-5.74113e-06
-5.6866e-06
-5.67764e-06
-5.73722e-06
-5.76429e-06
-5.78264e-06
-5.86323e-06
-5.95413e-06
-5.93382e-06
-5.93001e-06
-5.94854e-06
-5.80297e-06
-5.64428e-06
-5.51285e-06
-5.31014e-06
-5.11399e-06
-4.95394e-06
-4.82987e-06
-4.92506e-06
-5.07947e-06
-5.25031e-06
-5.54074e-06
-5.76523e-06
-5.77734e-06
-5.69911e-06
-5.60566e-06
-5.51948e-06
-5.51681e-06
-5.56163e-06
-5.60303e-06
-6.45856e-06
-6.62252e-06
-6.79372e-06
-7.03442e-06
-7.31328e-06
-7.53023e-06
-7.63361e-06
-7.69429e-06
-7.67493e-06
-7.65481e-06
-7.61785e-06
-7.56449e-06
-7.56025e-06
-7.55891e-06
-7.5655e-06
-7.57472e-06
-7.61538e-06
-7.70733e-06
-7.67821e-06
-7.65123e-06
-7.66291e-06
-7.5744e-06
-7.40028e-06
-7.27983e-06
-7.15725e-06
-7.00349e-06
-6.85021e-06
-6.67689e-06
-6.64308e-06
-6.63966e-06
-6.65702e-06
-6.75714e-06
-6.87602e-06
-6.75349e-06
-6.56055e-06
-6.39712e-06
-6.29279e-06
-6.30137e-06
-6.40091e-06
-6.39059e-06
7.48066e-06
6.93071e-06
6.19882e-06
6.45691e-06
8.45391e-06
1.09972e-05
1.25875e-05
1.32965e-05
1.42386e-05
1.65473e-05
2.00298e-05
2.39733e-05
2.76959e-05
3.03089e-05
3.10363e-05
3.01601e-05
2.85658e-05
2.68043e-05
2.54524e-05
2.44545e-05
2.34491e-05
2.22494e-05
2.12749e-05
2.07604e-05
2.07565e-05
2.09986e-05
2.12598e-05
2.18114e-05
2.21169e-05
2.15842e-05
2.00392e-05
1.83456e-05
1.68199e-05
1.51153e-05
1.31017e-05
1.11496e-05
9.64225e-06
8.78573e-06
8.23755e-06
7.74039e-06
7.21957e-06
6.68568e-06
5.98667e-06
6.27419e-06
8.26296e-06
1.07692e-05
1.23082e-05
1.29389e-05
1.37979e-05
1.61192e-05
1.96303e-05
2.35306e-05
2.72072e-05
2.97454e-05
3.0489e-05
2.97138e-05
2.82093e-05
2.65442e-05
2.52891e-05
2.43479e-05
2.33622e-05
2.21597e-05
2.11701e-05
2.06364e-05
2.06222e-05
2.08612e-05
2.11545e-05
2.17376e-05
2.20551e-05
2.15206e-05
1.99696e-05
1.82637e-05
1.67166e-05
1.49972e-05
1.29654e-05
1.09955e-05
9.47605e-06
8.60651e-06
8.03085e-06
7.49414e-06
5.7429e-06
5.34356e-06
4.74103e-06
5.09053e-06
7.11101e-06
9.62708e-06
1.11673e-05
1.17721e-05
1.25899e-05
1.47768e-05
1.81014e-05
2.18465e-05
2.52603e-05
2.75411e-05
2.81593e-05
2.74519e-05
2.6127e-05
2.46372e-05
2.35381e-05
2.27083e-05
2.18431e-05
2.07748e-05
1.98963e-05
1.94258e-05
1.94133e-05
1.96435e-05
1.99594e-05
2.063e-05
2.10071e-05
2.04632e-05
1.88475e-05
1.70961e-05
1.554e-05
1.3771e-05
1.17279e-05
9.76259e-06
8.22335e-06
7.31962e-06
6.64227e-06
5.9958e-06
2.46306e-06
2.13351e-06
1.62477e-06
2.03937e-06
4.24293e-06
7.08458e-06
8.93676e-06
9.71717e-06
1.03372e-05
1.18914e-05
1.4557e-05
1.7778e-05
2.0722e-05
2.26332e-05
2.31609e-05
2.2576e-05
2.14562e-05
2.02414e-05
1.94517e-05
1.88602e-05
1.82075e-05
1.74156e-05
1.67964e-05
1.63909e-05
1.63665e-05
1.66283e-05
1.70333e-05
1.79726e-05
1.86122e-05
1.80626e-05
1.62846e-05
1.43204e-05
1.26675e-05
1.10013e-05
9.1369e-06
7.30182e-06
5.73361e-06
4.68016e-06
3.74017e-06
2.86368e-06
-2.1069e-06
-2.49864e-06
-2.90855e-06
-2.24137e-06
4.29896e-07
3.8322e-06
6.25991e-06
6.82935e-06
6.39486e-06
6.66537e-06
8.4312e-06
1.11358e-05
1.36276e-05
1.53296e-05
1.60544e-05
1.59772e-05
1.52994e-05
1.43558e-05
1.38306e-05
1.34706e-05
1.30856e-05
1.26597e-05
1.2386e-05
1.20678e-05
1.19062e-05
1.2198e-05
1.28179e-05
1.41376e-05
1.52097e-05
1.46952e-05
1.25069e-05
1.00755e-05
8.42921e-06
7.17579e-06
5.71986e-06
3.91525e-06
2.19762e-06
9.99468e-07
-1.90306e-07
-1.43143e-06
-6.56746e-06
-6.70448e-06
-6.66281e-06
-5.39974e-06
-2.08182e-06
1.72783e-06
3.47752e-06
2.73412e-06
7.74773e-07
3.04158e-07
1.86878e-06
4.34475e-06
6.54937e-06
8.07635e-06
9.05477e-06
9.42123e-06
9.19277e-06
8.49818e-06
8.1703e-06
8.08647e-06
7.91386e-06
7.7405e-06
7.76264e-06
7.53481e-06
7.29578e-06
7.54949e-06
8.10274e-06
9.5266e-06
1.09636e-05
1.05916e-05
8.05835e-06
5.20715e-06
3.59118e-06
2.7786e-06
1.66463e-06
-1.6981e-07
-2.05213e-06
-3.32201e-06
-4.57121e-06
-5.91179e-06
-1.01778e-05
-9.85128e-06
-9.16211e-06
-7.38058e-06
-4.26052e-06
-1.29348e-06
-8.8444e-07
-3.11793e-06
-4.97133e-06
-4.60564e-06
-2.91542e-06
-1.18692e-06
2.9795e-07
1.40973e-06
2.33273e-06
2.94226e-06
3.04517e-06
2.85442e-06
2.93427e-06
3.28872e-06
3.66944e-06
3.95262e-06
4.06348e-06
3.56292e-06
3.15638e-06
3.26524e-06
3.64903e-06
4.92104e-06
6.48092e-06
6.18202e-06
3.57742e-06
5.85662e-07
-1.30778e-06
-2.32816e-06
-3.29386e-06
-4.82378e-06
-6.52646e-06
-7.77422e-06
-8.89553e-06
-9.88531e-06
-1.48538e-05
-1.43522e-05
-1.35029e-05
-1.17607e-05
-9.14977e-06
-7.15695e-06
-7.33136e-06
-8.8363e-06
-9.22471e-06
-8.51406e-06
-7.9287e-06
-7.66226e-06
-7.13951e-06
-6.54677e-06
-5.93918e-06
-5.13506e-06
-4.38939e-06
-3.79344e-06
-3.06607e-06
-2.15186e-06
-1.32359e-06
-7.34675e-07
-5.11445e-07
-7.9769e-07
-1.14347e-06
-1.27797e-06
-1.2635e-06
-3.59745e-07
8.47036e-07
5.23153e-07
-1.76491e-06
-4.59936e-06
-6.85677e-06
-8.16137e-06
-8.818e-06
-9.89683e-06
-1.15017e-05
-1.27246e-05