/*--------------------------------*- C++ -*----------------------------------*\
| =========                 |                                                 |
| \\      /  F ield         | OpenFOAM: The Open Source CFD Toolbox           |
|  \\    /   O peration     | Version:  2.3.0                                 |
|   \\  /    A nd           | Web:      www.OpenFOAM.org                      |
|    \\/     M anipulation  |                                                 |
\*---------------------------------------------------------------------------*/
FoamFile
{
    version     2.0;
    format      ascii;
    class       volScalarField;
    location    "200";
    object      pMean;
}
// * * * * * * * * * * * * * * * * * * * * * * * * * * * * * * * * * * * * * //

dimensions      [0 2 -2 0 0 0 0];

internalField   nonuniform List<scalar> 
90000
(
0.00173033
0.00173032
0.00173014
0.00172907
0.00172779
0.00172644
0.00172517
0.00172401
0.00172262
0.00172134
0.00172003
0.00171862
0.00171781
0.00171687
0.00171565
0.00171528
0.00171486
0.00171422
0.00171352
0.00171321
0.00171228
0.00171196
0.00171221
0.00171227
0.00171192
0.00171107
0.00171063
0.00171053
0.00171064
0.00171095
0.00171088
0.00171127
0.00171236
0.001713
0.00171322
0.00171368
0.00171453
0.00171568
0.00171695
0.00171749
0.00171821
0.00171975
0.00172091
0.00172117
0.00172163
0.0017228
0.0017242
0.00172549
0.00172699
0.00172923
0.0017303
0.00173026
0.00173007
0.001729
0.00172773
0.00172637
0.0017251
0.00172395
0.00172256
0.00172126
0.00171996
0.00171853
0.00171772
0.00171679
0.00171556
0.00171523
0.00171481
0.00171417
0.00171347
0.00171315
0.00171223
0.00171191
0.00171216
0.00171221
0.00171188
0.00171099
0.00171057
0.00171046
0.00171054
0.00171088
0.00171079
0.00171115
0.00171227
0.00171292
0.00171315
0.00171362
0.00171448
0.00171566
0.00171694
0.00171744
0.00171819
0.00171969
0.00172084
0.00172109
0.00172155
0.00172273
0.00172414
0.00172544
0.00172691
0.00172919
0.00173015
0.00173016
0.00172996
0.00172888
0.0017276
0.00172626
0.00172499
0.00172383
0.00172246
0.00172118
0.00171989
0.00171849
0.00171766
0.00171675
0.00171549
0.00171515
0.00171475
0.00171409
0.00171337
0.00171305
0.0017121
0.00171175
0.00171201
0.00171208
0.00171175
0.0017109
0.00171044
0.00171033
0.00171045
0.0017108
0.00171076
0.00171108
0.00171215
0.0017128
0.00171301
0.00171348
0.00171436
0.00171554
0.00171681
0.00171731
0.00171806
0.00171953
0.00172066
0.00172095
0.00172138
0.00172253
0.00172391
0.00172526
0.00172679
0.00172902
0.00173014
0.00173013
0.0017299
0.00172877
0.00172742
0.00172611
0.00172482
0.00172364
0.0017222
0.00172094
0.00171966
0.00171821
0.00171735
0.00171648
0.00171534
0.00171494
0.00171458
0.00171397
0.00171322
0.00171286
0.00171202
0.00171173
0.00171196
0.00171194
0.00171165
0.00171074
0.0017102
0.00171006
0.00171013
0.00171048
0.00171056
0.00171087
0.00171189
0.00171257
0.00171281
0.00171328
0.0017142
0.00171543
0.00171671
0.00171728
0.00171798
0.00171942
0.00172051
0.00172081
0.00172127
0.00172237
0.00172367
0.001725
0.00172644
0.00172873
0.00172998
0.00173012
0.00172979
0.00172852
0.0017271
0.00172579
0.00172454
0.00172334
0.00172199
0.00172075
0.00171962
0.00171826
0.00171727
0.00171644
0.00171517
0.00171462
0.00171427
0.00171366
0.00171289
0.00171247
0.00171162
0.00171139
0.00171171
0.00171166
0.00171134
0.00171053
0.0017099
0.00170981
0.00170999
0.00171054
0.00171071
0.00171095
0.00171177
0.00171238
0.00171264
0.00171313
0.00171407
0.00171522
0.00171644
0.00171702
0.00171769
0.00171914
0.00172028
0.00172059
0.00172099
0.00172207
0.00172328
0.00172474
0.00172611
0.00172827
0.00172944
0.00173002
0.00172966
0.00172828
0.00172668
0.00172533
0.00172406
0.00172274
0.00172128
0.00172002
0.00171875
0.00171739
0.00171637
0.00171562
0.0017146
0.00171398
0.00171363
0.00171319
0.0017125
0.00171218
0.00171145
0.00171135
0.00171169
0.00171149
0.00171108
0.00171019
0.00170952
0.0017094
0.00170945
0.00170995
0.00171044
0.00171077
0.0017115
0.00171205
0.00171226
0.00171271
0.00171373
0.00171496
0.00171614
0.00171682
0.00171757
0.00171907
0.0017202
0.00172052
0.00172087
0.00172195
0.00172316
0.00172438
0.00172561
0.00172741
0.00172919
0.00172952
0.00172873
0.0017272
0.00172557
0.00172424
0.00172311
0.00172185
0.00172049
0.00171931
0.0017182
0.001717
0.00171592
0.00171512
0.00171418
0.00171348
0.00171311
0.00171264
0.00171182
0.00171133
0.00171076
0.00171078
0.00171129
0.00171105
0.0017105
0.00170964
0.00170874
0.00170884
0.00170906
0.00170956
0.00171009
0.00171052
0.00171121
0.00171182
0.00171203
0.00171241
0.00171335
0.00171447
0.00171543
0.00171616
0.00171703
0.00171842
0.00171925
0.00171938
0.00171979
0.00172117
0.00172241
0.00172376
0.00172483
0.00172683
0.00172761
0.00172826
0.00172762
0.00172619
0.00172457
0.00172319
0.00172214
0.00172071
0.00171913
0.0017179
0.0017168
0.00171594
0.001715
0.00171439
0.00171376
0.00171273
0.00171207
0.00171172
0.00171121
0.00171061
0.00170999
0.00171
0.00171073
0.00171062
0.00170999
0.00170925
0.00170838
0.00170816
0.00170793
0.00170805
0.00170864
0.00170928
0.00170975
0.00171001
0.0017101
0.00171055
0.00171163
0.00171297
0.00171427
0.00171538
0.00171618
0.00171738
0.00171809
0.00171846
0.00171909
0.00172059
0.00172176
0.00172275
0.00172342
0.0017249
0.00172611
0.00172702
0.00172637
0.00172502
0.00172324
0.00172177
0.00172039
0.00171901
0.00171778
0.00171697
0.00171608
0.00171511
0.00171407
0.0017136
0.00171352
0.00171252
0.00171181
0.00171131
0.00171042
0.00170936
0.00170864
0.00170891
0.00170959
0.00170912
0.00170808
0.00170737
0.00170682
0.00170696
0.00170676
0.0017069
0.00170748
0.00170795
0.00170812
0.00170816
0.00170836
0.00170877
0.00170965
0.00171093
0.00171221
0.00171346
0.00171444
0.00171568
0.00171667
0.00171758
0.00171852
0.00171968
0.00172008
0.00172048
0.00172108
0.00172292
0.00172434
0.00172556
0.00172476
0.00172326
0.00172159
0.00172016
0.00171881
0.00171759
0.00171637
0.00171547
0.00171436
0.00171348
0.00171259
0.00171201
0.0017119
0.00171096
0.00171032
0.00170978
0.00170918
0.00170828
0.00170777
0.00170794
0.00170835
0.00170764
0.00170666
0.00170619
0.001706
0.00170616
0.00170585
0.00170571
0.00170587
0.00170629
0.00170673
0.00170717
0.00170762
0.00170779
0.00170794
0.00170856
0.00170933
0.00171043
0.00171165
0.00171306
0.00171412
0.00171534
0.00171649
0.00171757
0.00171788
0.00171826
0.00171895
0.00172069
0.00172335
0.00172498
0.00172442
0.0017226
0.00172038
0.00171855
0.00171725
0.00171623
0.001715
0.00171408
0.00171299
0.0017123
0.00171144
0.00171072
0.00171033
0.00170961
0.00170907
0.00170866
0.00170823
0.00170737
0.00170685
0.00170685
0.00170722
0.00170701
0.00170649
0.0017064
0.0017059
0.00170543
0.00170454
0.00170421
0.00170421
0.00170473
0.00170534
0.00170575
0.0017061
0.00170667
0.00170694
0.00170727
0.00170764
0.00170868
0.00170956
0.00171077
0.00171198
0.00171343
0.0017144
0.0017152
0.00171604
0.00171708
0.0017179
0.0017195
0.0017231
0.00172442
0.00172388
0.00172228
0.00171998
0.00171791
0.00171617
0.00171517
0.00171417
0.00171337
0.00171227
0.00171147
0.00171055
0.00170999
0.00171017
0.00170992
0.00170929
0.00170809
0.00170697
0.00170594
0.00170575
0.00170601
0.00170659
0.00170665
0.0017061
0.00170606
0.00170578
0.00170507
0.00170416
0.00170344
0.00170292
0.00170302
0.00170364
0.00170442
0.00170528
0.0017063
0.00170714
0.00170763
0.00170787
0.00170863
0.00170933
0.00171019
0.00171125
0.00171266
0.00171365
0.00171403
0.00171472
0.00171613
0.0017175
0.00171996
0.00172118
0.00172255
0.00172248
0.0017212
0.00171942
0.00171793
0.0017166
0.00171541
0.00171394
0.00171286
0.00171198
0.00171148
0.00171087
0.0017104
0.00170999
0.00170917
0.00170818
0.00170705
0.00170598
0.00170508
0.00170483
0.00170478
0.001705
0.00170504
0.00170506
0.00170565
0.00170571
0.00170527
0.00170406
0.00170281
0.0017021
0.00170191
0.00170258
0.00170375
0.00170483
0.00170569
0.0017063
0.00170684
0.00170727
0.00170827
0.00170908
0.00171026
0.00171147
0.00171265
0.00171362
0.00171425
0.00171506
0.00171616
0.00171767
0.00171858
0.00171888
0.00172021
0.00172048
0.00171951
0.00171732
0.00171544
0.00171417
0.00171312
0.00171192
0.00171116
0.00171058
0.00171003
0.00170934
0.00170888
0.00170901
0.00170881
0.00170822
0.00170691
0.00170571
0.00170479
0.00170413
0.00170335
0.00170287
0.0017028
0.00170307
0.00170354
0.00170333
0.00170277
0.00170189
0.00170119
0.00170072
0.00170061
0.00170135
0.00170273
0.00170409
0.00170533
0.00170625
0.00170676
0.00170707
0.00170787
0.00170865
0.00171013
0.00171173
0.00171296
0.00171314
0.00171332
0.00171405
0.001715
0.0017156
0.00171662
0.00171742
0.0017182
0.00171838
0.00171773
0.00171658
0.00171539
0.00171412
0.00171284
0.00171166
0.00171082
0.00170954
0.00170829
0.00170702
0.00170626
0.00170604
0.00170552
0.00170481
0.00170345
0.00170221
0.00170149
0.00170109
0.00170093
0.00170104
0.00170125
0.00170177
0.00170228
0.00170171
0.00170126
0.00170086
0.00170064
0.00170038
0.00170036
0.00170089
0.00170168
0.00170237
0.00170342
0.0017043
0.0017048
0.00170526
0.00170592
0.00170656
0.00170798
0.00170993
0.00171145
0.00171248
0.00171332
0.00171414
0.00171462
0.00171502
0.00171617
0.00171531
0.00171566
0.00171515
0.00171423
0.00171341
0.00171254
0.00171138
0.00171031
0.00170927
0.0017081
0.0017068
0.00170591
0.0017054
0.00170508
0.0017049
0.00170426
0.00170336
0.00170194
0.0017008
0.00169982
0.0016991
0.00169886
0.0016989
0.00169844
0.00169778
0.00169764
0.00169748
0.00169749
0.00169735
0.00169738
0.00169729
0.0016973
0.00169752
0.00169808
0.00169913
0.00170051
0.0017014
0.00170183
0.00170268
0.00170359
0.00170408
0.0017051
0.00170643
0.00170741
0.00170838
0.00170975
0.0017109
0.00171172
0.00171228
0.00171335
0.00171201
0.00171295
0.00171337
0.00171329
0.00171284
0.00171163
0.00170993
0.00170856
0.0017074
0.00170612
0.00170492
0.00170406
0.00170346
0.00170269
0.00170181
0.001701
0.00169994
0.00169892
0.00169846
0.00169738
0.00169618
0.00169539
0.00169494
0.00169439
0.00169399
0.00169448
0.00169496
0.00169537
0.00169552
0.00169536
0.00169487
0.00169431
0.00169419
0.00169423
0.00169483
0.0016961
0.00169654
0.00169744
0.00169845
0.0016987
0.00169903
0.00170046
0.00170242
0.00170413
0.00170556
0.00170678
0.00170779
0.00170864
0.00170947
0.00171042
0.00170902
0.00171103
0.00171177
0.00171145
0.00171029
0.00170826
0.00170623
0.00170482
0.00170374
0.00170294
0.00170203
0.00170103
0.0016997
0.0016984
0.00169779
0.00169777
0.00169742
0.00169715
0.00169748
0.00169683
0.00169585
0.00169449
0.00169341
0.00169292
0.00169281
0.00169304
0.00169327
0.00169378
0.00169375
0.00169282
0.0016914
0.0016909
0.00169145
0.00169193
0.00169287
0.00169348
0.00169267
0.00169334
0.00169441
0.00169521
0.00169642
0.00169842
0.00170034
0.00170184
0.0017028
0.00170354
0.00170415
0.00170498
0.00170616
0.00170707
0.00170955
0.00171168
0.00171224
0.0017113
0.00170959
0.00170789
0.00170692
0.00170617
0.00170533
0.00170459
0.00170324
0.00170173
0.00170028
0.00169948
0.00169907
0.001699
0.00169827
0.00169811
0.00169864
0.00169822
0.00169723
0.00169572
0.00169493
0.00169508
0.0016954
0.00169511
0.00169491
0.00169512
0.00169507
0.00169451
0.00169412
0.00169437
0.00169507
0.00169502
0.00169538
0.00169497
0.00169456
0.00169561
0.00169646
0.00169727
0.00169932
0.00170093
0.00170148
0.00170304
0.00170475
0.0017055
0.0017061
0.00170731
0.00170893
0.00170921
0.00171827
0.00172192
0.00172129
0.00171874
0.00171545
0.00171291
0.00171144
0.00171032
0.00170973
0.00170881
0.00170666
0.00170465
0.00170333
0.00170194
0.00170106
0.00170121
0.00170089
0.00170147
0.0017024
0.0017023
0.00170132
0.00170048
0.0016998
0.00169982
0.00170052
0.00170049
0.00170066
0.00170106
0.00169981
0.00169798
0.00169633
0.00169578
0.00169544
0.00169471
0.00169511
0.00169562
0.00169729
0.00169933
0.00170007
0.00170168
0.001704
0.00170563
0.00170792
0.00171042
0.00171225
0.00171284
0.00171336
0.00171472
0.00171574
0.00171563
0.00170295
0.00172213
0.00172195
0.00171887
0.00171587
0.00171448
0.00171386
0.00171299
0.0017121
0.00171086
0.00170893
0.00170703
0.00170536
0.00170294
0.00170119
0.00170043
0.00170011
0.00170103
0.00170074
0.00170162
0.00170068
0.00169991
0.00169951
0.00169937
0.00169992
0.00170044
0.00170056
0.00170006
0.00169864
0.00169823
0.00169777
0.00169846
0.00169804
0.00169652
0.00169543
0.00169555
0.00169786
0.00170107
0.00170191
0.00170135
0.00170266
0.00170169
0.00170633
0.00170742
0.00170841
0.00170964
0.00171105
0.00171124
0.00171322
0.0017014
0.00171399
0.00171776
0.00171817
0.00171717
0.00171486
0.00171245
0.00171065
0.00170984
0.00170931
0.00170842
0.00170691
0.00170543
0.00170413
0.00170273
0.00170189
0.00170174
0.00170229
0.00170301
0.00170274
0.00170408
0.0017044
0.00170405
0.00170337
0.00170318
0.00170366
0.00170442
0.00170374
0.00170285
0.00170185
0.00170107
0.00169946
0.00169838
0.00169816
0.00169821
0.00169777
0.001698
0.00169992
0.00170104
0.00170301
0.00170308
0.00170509
0.0017058
0.00170785
0.00170992
0.00170956
0.00171003
0.00171003
0.00171084
0.00171116
0.00171189
0.00171831
0.00172459
0.00172574
0.00172352
0.0017207
0.00171848
0.00171686
0.00171548
0.00171455
0.00171393
0.00171313
0.0017119
0.00171012
0.00170802
0.00170647
0.00170533
0.00170501
0.00170558
0.00170441
0.00170541
0.00170495
0.00170431
0.00170481
0.00170508
0.00170523
0.0017057
0.00170556
0.00170557
0.00170552
0.0017053
0.0017049
0.00170516
0.0017049
0.00170488
0.00170468
0.001703
0.00170469
0.00170474
0.00170718
0.00170843
0.00170899
0.00170781
0.00170967
0.00171256
0.00171409
0.00171547
0.00171773
0.00171862
0.00172059
0.0017199
0.00172251
0.00172492
0.00172515
0.0017235
0.00172126
0.00171909
0.00171745
0.00171645
0.00171553
0.00171493
0.00171332
0.00171115
0.00170956
0.00170821
0.00170723
0.0017066
0.00170644
0.00170679
0.00170614
0.00170623
0.00170659
0.00170715
0.00170775
0.00170774
0.00170719
0.00170687
0.00170641
0.00170574
0.0017051
0.0017045
0.0017039
0.00170351
0.00170326
0.0017031
0.00170367
0.00170408
0.00170578
0.00170637
0.00170831
0.00171026
0.00171068
0.00171184
0.00171423
0.00171608
0.00171619
0.00171712
0.00171807
0.00171863
0.00171866
0.00172025
0.00172184
0.00172052
0.00171929
0.00171801
0.0017167
0.00171541
0.00171447
0.00171407
0.00171424
0.0017145
0.00171408
0.00171295
0.00171153
0.00171014
0.00170872
0.00170764
0.00170676
0.00170573
0.00170369
0.00170259
0.00170187
0.00170129
0.00170095
0.00170088
0.00170113
0.00170113
0.001701
0.00170099
0.00170107
0.00170104
0.00170096
0.0017015
0.00170277
0.00170353
0.00170343
0.00170203
0.00170244
0.00170316
0.00170389
0.00170491
0.00170506
0.00170604
0.00170746
0.00170901
0.00171057
0.00171179
0.00171327
0.00171544
0.001717
0.00172018
0.00171185
0.00171308
0.00171348
0.00171322
0.00171238
0.00171118
0.00170975
0.00170903
0.00170938
0.00171012
0.00170979
0.00170797
0.00170548
0.00170345
0.00170187
0.00170079
0.00170013
0.00170003
0.00170015
0.00169988
0.00169967
0.0016999
0.0017003
0.00170033
0.00170029
0.00169988
0.00169883
0.00169734
0.00169581
0.00169481
0.00169436
0.00169404
0.00169471
0.00169573
0.00169672
0.00169753
0.0016982
0.00169932
0.00170039
0.00170158
0.00170245
0.00170348
0.00170514
0.00170716
0.00170889
0.00171019
0.00171119
0.00171215
0.00171238
0.00171207
0.00171566
0.0017134
0.00171014
0.00170713
0.00170557
0.00170456
0.00170497
0.00170563
0.00170717
0.00170802
0.00170755
0.00170623
0.00170491
0.001704
0.00170319
0.00170213
0.00170079
0.00169935
0.00169783
0.00169686
0.00169628
0.00169591
0.00169632
0.00169699
0.00169759
0.00169747
0.0016972
0.00169691
0.00169699
0.00169709
0.00169723
0.00169744
0.00169835
0.00169956
0.00170117
0.00170221
0.00170268
0.00170303
0.00170363
0.00170433
0.00170507
0.00170546
0.00170552
0.00170536
0.00170567
0.0017068
0.00170779
0.00170869
0.00171031
0.00171304
0.00170881
0.00170892
0.00170737
0.00170771
0.00170525
0.0017047
0.00170376
0.00171034
0.00171505
0.00171651
0.00171446
0.00171089
0.00170785
0.00170659
0.00170597
0.00170523
0.00170382
0.00170295
0.00170265
0.0017022
0.0017018
0.00170148
0.00170135
0.00170153
0.00170186
0.00170225
0.00170229
0.00170194
0.0017008
0.0016997
0.00169864
0.00169816
0.00169764
0.00169718
0.00169694
0.00169754
0.00169791
0.00169877
0.0016997
0.00170174
0.00170254
0.00170294
0.00170229
0.00170315
0.00170423
0.00170697
0.00170843
0.00170974
0.0017097
0.00170962
0.00170845
0.00170732
0.00170497
0.00170295
0.00170162
0.00170069
0.00170022
0.0017005
0.00170176
0.00170244
0.00170282
0.00170254
0.00170174
0.00170109
0.00170088
0.0017011
0.00170121
0.00170108
0.00170032
0.00169901
0.00169786
0.00169738
0.00169741
0.00169741
0.00169686
0.00169636
0.00169618
0.00169641
0.00169724
0.00169725
0.00169703
0.00169643
0.00169541
0.00169439
0.00169433
0.00169546
0.00169698
0.00169785
0.00169809
0.00169811
0.00169839
0.0016987
0.00169854
0.00169918
0.00170023
0.00170184
0.00170295
0.00170376
0.0017044
0.00170619
0.00170237
0.00170223
0.0017015
0.00170065
0.00170002
0.00170002
0.00170027
0.00170074
0.00170177
0.00170248
0.0017027
0.00170165
0.00170014
0.00169953
0.00169844
0.00169679
0.00169554
0.00169422
0.0016928
0.00169222
0.0016923
0.00169253
0.00169219
0.00169116
0.00169009
0.00169003
0.00169129
0.00169238
0.00169231
0.00169109
0.00168954
0.00168915
0.00168942
0.00168989
0.00169068
0.00169106
0.00169163
0.00169221
0.00169245
0.00169268
0.00169381
0.00169514
0.0016961
0.00169672
0.00169695
0.00169763
0.00169848
0.00169912
0.00169976
0.00170097
0.00173536
0.00173529
0.00173472
0.0017342
0.00173321
0.001732
0.00173065
0.00172971
0.00172842
0.00172698
0.00172535
0.00172397
0.00172278
0.00172158
0.00172075
0.00171922
0.00171851
0.00171848
0.00171821
0.00171776
0.00171703
0.00171679
0.00171697
0.00171646
0.00171562
0.00171556
0.00171502
0.00171479
0.00171465
0.00171455
0.00171551
0.00171574
0.00171609
0.00171626
0.0017161
0.00171593
0.00171634
0.00171728
0.00171878
0.00172
0.00172031
0.00172207
0.00172453
0.00172652
0.00172757
0.00172864
0.00172971
0.00173146
0.00173261
0.00173406
0.00173507
0.00173502
0.00173439
0.00173374
0.00173266
0.00173142
0.00173008
0.00172918
0.00172799
0.00172668
0.00172517
0.00172376
0.00172245
0.00172118
0.0017204
0.00171898
0.0017183
0.00171822
0.00171797
0.00171756
0.00171686
0.00171659
0.00171677
0.00171634
0.00171566
0.00171569
0.00171512
0.00171472
0.00171443
0.00171425
0.00171507
0.00171516
0.00171546
0.0017157
0.00171568
0.00171573
0.00171635
0.00171738
0.00171873
0.00171975
0.00171996
0.00172161
0.00172408
0.00172604
0.00172702
0.00172806
0.00172918
0.00173097
0.00173221
0.00173376
0.00173487
0.00173487
0.00173429
0.00173359
0.0017325
0.00173137
0.00173016
0.00172939
0.00172818
0.00172668
0.00172495
0.00172351
0.00172231
0.00172119
0.00172047
0.00171905
0.00171838
0.00171816
0.00171774
0.00171728
0.00171651
0.00171622
0.00171634
0.00171589
0.00171532
0.00171555
0.00171516
0.00171484
0.00171438
0.00171416
0.0017149
0.00171475
0.00171504
0.00171536
0.00171531
0.00171515
0.00171564
0.0017168
0.00171822
0.00171925
0.00171965
0.00172164
0.00172418
0.00172601
0.00172678
0.00172771
0.001729
0.00173108
0.00173238
0.00173373
0.00173391
0.00173417
0.00173383
0.00173323
0.00173218
0.00173108
0.00172976
0.00172886
0.00172757
0.00172588
0.00172414
0.00172275
0.00172158
0.0017206
0.0017199
0.00171854
0.00171812
0.00171783
0.00171732
0.00171686
0.00171601
0.00171562
0.00171556
0.00171499
0.0017146
0.00171498
0.00171466
0.00171435
0.00171386
0.00171394
0.00171487
0.00171443
0.00171448
0.00171485
0.00171477
0.00171438
0.00171476
0.0017163
0.00171786
0.00171854
0.00171887
0.00172131
0.00172412
0.00172571
0.00172597
0.00172656
0.00172783
0.00173001
0.00173135
0.00173263
0.00173273
0.00173318
0.00173305
0.00173248
0.00173158
0.00173073
0.0017294
0.00172845
0.00172715
0.00172527
0.00172309
0.00172164
0.00172038
0.00171953
0.00171866
0.00171712
0.00171687
0.00171669
0.00171633
0.00171619
0.00171555
0.00171558
0.00171542
0.00171457
0.00171435
0.00171486
0.00171445
0.00171404
0.00171318
0.00171364
0.00171479
0.00171381
0.0017136
0.0017142
0.00171412
0.00171364
0.00171376
0.00171537
0.00171684
0.00171691
0.00171734
0.00172036
0.00172353
0.00172488
0.0017248
0.00172505
0.00172623
0.00172866
0.00173026
0.00173163
0.00173154
0.00173243
0.0017324
0.00173162
0.00173047
0.00172951
0.00172826
0.00172737
0.0017262
0.00172409
0.00172182
0.00172049
0.00171951
0.00171902
0.00171817
0.00171656
0.00171644
0.00171608
0.00171555
0.00171548
0.00171502
0.00171543
0.00171524
0.00171404
0.00171396
0.0017144
0.00171387
0.00171332
0.00171226
0.00171273
0.00171407
0.00171269
0.00171216
0.001713
0.00171334
0.00171324
0.00171337
0.0017152
0.00171661
0.00171612
0.00171652
0.00171996
0.00172327
0.00172423
0.00172362
0.00172352
0.00172474
0.00172736
0.00172913
0.00173038
0.00173002
0.00173205
0.00173262
0.0017318
0.00173041
0.00172924
0.00172772
0.00172664
0.00172529
0.00172293
0.00172058
0.00171927
0.00171828
0.00171781
0.00171677
0.00171522
0.00171528
0.00171487
0.00171446
0.00171437
0.00171385
0.00171469
0.0017145
0.00171307
0.0017132
0.00171359
0.00171276
0.00171246
0.00171172
0.00171247
0.00171343
0.00171171
0.00171088
0.0017112
0.00171172
0.00171222
0.00171299
0.00171523
0.00171644
0.00171496
0.00171548
0.00171935
0.0017229
0.00172382
0.00172355
0.00172378
0.00172479
0.00172681
0.00172793
0.00172856
0.00172739
0.00173063
0.0017315
0.00173056
0.00172913
0.00172761
0.00172601
0.00172509
0.00172379
0.00172149
0.00171912
0.00171772
0.0017165
0.00171594
0.00171478
0.00171361
0.00171385
0.00171377
0.0017132
0.00171294
0.00171246
0.00171333
0.00171334
0.00171187
0.00171169
0.00171149
0.00171031
0.00171009
0.00170983
0.00171038
0.00171083
0.00170959
0.0017088
0.00170903
0.00171017
0.00171132
0.00171251
0.00171504
0.00171592
0.00171421
0.00171522
0.00171885
0.00172127
0.0017217
0.00172192
0.00172323
0.00172474
0.00172637
0.00172676
0.00172581
0.00172463
0.00172839
0.00172913
0.00172816
0.00172659
0.00172499
0.00172357
0.00172264
0.00172141
0.00171926
0.00171706
0.0017159
0.00171472
0.00171409
0.00171263
0.00171156
0.00171175
0.0017114
0.00171049
0.00170956
0.00170873
0.00170958
0.0017104
0.0017099
0.00170986
0.0017094
0.00170815
0.00170791
0.00170788
0.00170819
0.00170845
0.00170768
0.00170679
0.00170691
0.00170835
0.00170955
0.00171086
0.00171311
0.001714
0.00171358
0.00171545
0.00171752
0.00171855
0.00171822
0.00171884
0.00172134
0.0017242
0.00172632
0.00172658
0.0017245
0.00172414
0.00172907
0.00172911
0.00172771
0.00172587
0.00172374
0.00172185
0.00172027
0.00171859
0.0017161
0.00171382
0.00171288
0.00171254
0.001712
0.00171003
0.0017093
0.00170907
0.00170854
0.00170752
0.00170605
0.0017049
0.00170561
0.00170682
0.00170684
0.00170685
0.00170661
0.0017065
0.00170647
0.00170645
0.00170679
0.00170692
0.00170655
0.00170575
0.00170604
0.00170775
0.00170859
0.00170937
0.00171087
0.00171131
0.00171072
0.00171266
0.00171474
0.00171581
0.00171598
0.00171629
0.00171761
0.00171941
0.00172292
0.00172373
0.00172115
0.0017158
0.00172646
0.00172711
0.00172541
0.00172291
0.00172046
0.00171851
0.00171684
0.00171528
0.00171298
0.00171109
0.00171048
0.00171082
0.00170994
0.00170746
0.0017074
0.00170731
0.00170693
0.00170563
0.00170398
0.00170291
0.00170361
0.00170476
0.00170505
0.00170493
0.00170474
0.00170565
0.00170568
0.00170529
0.00170547
0.00170523
0.00170446
0.00170367
0.00170398
0.00170472
0.00170467
0.00170577
0.00170723
0.00170665
0.00170598
0.00170843
0.00171145
0.00171345
0.00171387
0.00171338
0.001712
0.00171128
0.00171449
0.00171879
0.001713
0.00171621
0.00172244
0.0017233
0.00172133
0.0017184
0.00171588
0.00171426
0.00171325
0.00171225
0.00171091
0.00171026
0.00171022
0.00171028
0.00170904
0.00170678
0.00170662
0.00170626
0.00170556
0.00170437
0.00170291
0.00170224
0.00170292
0.00170363
0.00170352
0.00170344
0.00170331
0.001704
0.00170395
0.00170384
0.00170396
0.00170258
0.00170085
0.00170027
0.00170053
0.00170039
0.00169958
0.00170063
0.00170239
0.00170151
0.00170016
0.00170341
0.00170769
0.00170984
0.0017099
0.00170955
0.00170915
0.00170914
0.00171249
0.00171456
0.00171333
0.00171579
0.00172166
0.00172245
0.00172018
0.00171688
0.00171399
0.00171201
0.00171055
0.00170949
0.00170885
0.00170891
0.00170901
0.00170865
0.00170752
0.0017058
0.00170627
0.00170638
0.00170604
0.00170487
0.0017038
0.00170303
0.00170333
0.00170366
0.00170344
0.001703
0.00170227
0.00170277
0.00170243
0.00170196
0.00170171
0.00170056
0.00169902
0.00169845
0.0016983
0.00169769
0.0016969
0.00169873
0.00170191
0.0017027
0.00170077
0.00170212
0.00170538
0.00170744
0.00170671
0.00170622
0.00170708
0.00170942
0.00171268
0.0017169
0.00171547
0.00171403
0.00171887
0.00172035
0.00171891
0.00171638
0.00171388
0.0017119
0.00171037
0.00170935
0.00170898
0.00170877
0.00170809
0.00170721
0.00170616
0.00170497
0.00170543
0.00170585
0.00170586
0.00170537
0.0017047
0.00170417
0.00170426
0.00170428
0.00170384
0.00170335
0.00170242
0.00170288
0.00170298
0.00170229
0.00170118
0.00170022
0.00169966
0.00169966
0.00169909
0.0016976
0.00169679
0.00169843
0.00170175
0.00170391
0.00170294
0.00170301
0.00170476
0.0017066
0.00170671
0.00170673
0.00170798
0.00170976
0.00171224
0.00171431
0.00171347
0.00171364
0.00171589
0.00171769
0.00171751
0.00171602
0.00171415
0.00171257
0.00171135
0.00171065
0.00171024
0.00170983
0.00170883
0.00170765
0.00170691
0.00170576
0.00170598
0.00170606
0.00170609
0.00170565
0.00170515
0.00170458
0.00170428
0.00170421
0.00170363
0.00170272
0.00170179
0.00170199
0.0017023
0.00170159
0.00170038
0.00170003
0.00170079
0.00170186
0.00170176
0.00170045
0.00169964
0.00170047
0.00170246
0.00170406
0.00170278
0.0017024
0.00170311
0.0017048
0.00170628
0.00170787
0.00170996
0.00171131
0.0017124
0.00171417
0.00171443
0.00171229
0.00171334
0.00171512
0.00171569
0.00171483
0.0017132
0.00171149
0.00171018
0.00170944
0.00170902
0.0017082
0.0017071
0.00170627
0.00170591
0.00170546
0.00170512
0.00170477
0.00170445
0.0017041
0.00170407
0.00170391
0.00170376
0.00170412
0.00170447
0.00170409
0.00170239
0.00170186
0.00170172
0.00170071
0.00169907
0.00169903
0.00169925
0.00169976
0.00169997
0.00169982
0.00169998
0.00170113
0.00170262
0.00170378
0.00170374
0.00170387
0.00170481
0.00170679
0.00170876
0.00171084
0.00171309
0.00171396
0.00171452
0.00171485
0.00171399
0.00171585
0.00171551
0.00171522
0.00171492
0.00171376
0.00171191
0.00171023
0.00170895
0.00170784
0.00170658
0.00170546
0.0017051
0.00170564
0.00170602
0.00170606
0.00170579
0.00170557
0.00170514
0.00170402
0.00170422
0.00170397
0.00170281
0.00170217
0.00170209
0.00170141
0.00169984
0.00169867
0.00169799
0.00169745
0.00169681
0.00169647
0.00169647
0.00169709
0.00169747
0.00169779
0.00169855
0.00169986
0.00170153
0.00170305
0.00170367
0.00170427
0.00170508
0.00170646
0.00170815
0.0017098
0.00171178
0.00171265
0.00171344
0.00171404
0.00171457
0.0017156
0.00171719
0.00171791
0.00171786
0.00171677
0.0017149
0.0017131
0.00171155
0.0017099
0.00170827
0.00170686
0.00170588
0.00170557
0.001705
0.00170423
0.00170386
0.00170373
0.00170355
0.00170305
0.00170239
0.00170157
0.0017006
0.00170021
0.00170017
0.0017001
0.001699
0.0016979
0.00169704
0.00169653
0.00169592
0.00169561
0.00169554
0.00169579
0.00169607
0.001697
0.00169822
0.00169914
0.00170076
0.00170262
0.00170345
0.00170336
0.00170367
0.00170552
0.00170849
0.00171076
0.00171243
0.00171387
0.00171479
0.00171588
0.00171593
0.00171792
0.00171816
0.00171705
0.00171553
0.00171381
0.00171191
0.00171027
0.0017091
0.0017079
0.00170674
0.00170564
0.00170479
0.00170413
0.0017034
0.00170244
0.00170195
0.00170187
0.00170202
0.00170176
0.00170064
0.00169952
0.0016986
0.00169827
0.00169799
0.00169754
0.00169696
0.00169639
0.00169559
0.00169498
0.0016946
0.00169423
0.00169342
0.00169301
0.0016939
0.00169595
0.00169827
0.00169988
0.0017015
0.00170273
0.00170309
0.00170334
0.00170464
0.0017069
0.0017089
0.00170988
0.00171063
0.00171202
0.00171343
0.00171448
0.00171607
0.00171817
0.00171818
0.00171628
0.00171424
0.00171275
0.00171176
0.00171123
0.00171072
0.00170969
0.00170804
0.00170635
0.00170506
0.00170418
0.00170348
0.00170284
0.00170281
0.00170332
0.00170405
0.00170455
0.00170422
0.00170371
0.00170265
0.00170106
0.00170002
0.00170006
0.0017003
0.0017003
0.00169998
0.00169916
0.00169779
0.00169664
0.00169619
0.00169652
0.00169718
0.00169805
0.00169961
0.0017012
0.00170298
0.00170482
0.00170604
0.00170679
0.00170783
0.00170925
0.00171035
0.00171087
0.00171114
0.00171211
0.00171336
0.00171468
0.00171591
0.00172175
0.00172252
0.00172058
0.00171823
0.00171629
0.00171493
0.00171427
0.00171407
0.00171306
0.00171128
0.00170963
0.00170878
0.00170762
0.00170598
0.00170493
0.0017052
0.00170601
0.00170644
0.00170628
0.00170554
0.00170457
0.0017035
0.00170255
0.00170195
0.00170141
0.00170076
0.00170019
0.00169958
0.00169877
0.0016981
0.00169762
0.00169758
0.00169818
0.00169941
0.0017008
0.0017024
0.00170356
0.00170506
0.00170644
0.00170774
0.00170866
0.00170983
0.00171091
0.00171198
0.00171309
0.00171402
0.00171493
0.00171662
0.00171798
0.00171912
0.00171603
0.00171609
0.00171426
0.00171145
0.0017087
0.00170748
0.00170798
0.00170808
0.00170691
0.00170525
0.00170373
0.00170252
0.00170146
0.00170065
0.0017003
0.00170035
0.00170055
0.00170044
0.00170015
0.00169923
0.00169835
0.00169761
0.00169686
0.00169621
0.00169585
0.0016954
0.00169476
0.0016942
0.00169371
0.00169307
0.00169243
0.00169213
0.00169242
0.00169304
0.00169432
0.00169635
0.00169782
0.00169911
0.00170039
0.00170137
0.00170214
0.00170342
0.00170479
0.00170557
0.00170591
0.00170592
0.00170707
0.0017099
0.0017122
0.00171419
0.00171812
0.00171841
0.00171696
0.00171481
0.00171299
0.00171186
0.00171116
0.00171062
0.00170977
0.0017087
0.00170762
0.00170663
0.00170578
0.00170477
0.00170374
0.00170291
0.00170229
0.00170216
0.00170266
0.00170235
0.00170178
0.00170132
0.001701
0.00170071
0.00170055
0.00170037
0.00170005
0.00169948
0.0016988
0.0016977
0.00169651
0.00169579
0.00169582
0.00169592
0.00169607
0.00169662
0.00169744
0.00169926
0.00170146
0.00170311
0.00170386
0.00170437
0.00170551
0.00170665
0.00170822
0.00171014
0.00171189
0.00171357
0.00171478
0.00171675
0.0017204
0.00172017
0.00171853
0.0017164
0.0017145
0.00171262
0.00171119
0.00170964
0.00170883
0.00170895
0.00170891
0.00170836
0.00170756
0.00170665
0.00170595
0.00170554
0.00170521
0.00170512
0.00170528
0.00170456
0.00170361
0.00170285
0.00170239
0.00170215
0.00170187