/*--------------------------------*- C++ -*----------------------------------*\
| =========                 |                                                 |
| \\      /  F ield         | OpenFOAM: The Open Source CFD Toolbox           |
|  \\    /   O peration     | Version:  2.3.0                                 |
|   \\  /    A nd           | Web:      www.OpenFOAM.org                      |
|    \\/     M anipulation  |                                                 |
\*---------------------------------------------------------------------------*/
FoamFile
{
    version     2.0;
    format      ascii;
    class       volScalarField;
    location    "200";
    object      pPrime2Mean;
}
// * * * * * * * * * * * * * * * * * * * * * * * * * * * * * * * * * * * * * //

dimensions      [0 4 -4 0 0 0 0];

internalField   nonuniform List<scalar> 
60000
(
5.41327e-08
5.5175e-08
5.3804e-08
4.85494e-08
4.55956e-08
4.69417e-08
4.83624e-08
4.48705e-08
4.03599e-08
3.76487e-08
3.41319e-08
2.99137e-08
2.91042e-08
3.52489e-08
4.72529e-08
5.80863e-08
6.23582e-08
5.97947e-08
5.23716e-08
4.45538e-08
3.96128e-08
3.59736e-08
3.36435e-08
3.53306e-08
4.0359e-08
4.52147e-08
4.79165e-08
4.8467e-08
4.62168e-08
4.20082e-08
4.02814e-08
4.23503e-08
4.41689e-08
4.38021e-08
4.45454e-08
4.60261e-08
4.51694e-08
4.65947e-08
5.24741e-08
5.48906e-08
5.44518e-08
5.54849e-08
5.41234e-08
4.87513e-08
4.57219e-08
4.71349e-08
4.86011e-08
4.50685e-08
4.05286e-08
3.78901e-08
3.43846e-08
3.00637e-08
2.9127e-08
3.52606e-08
4.74096e-08
5.84626e-08
6.29117e-08
6.03676e-08
5.27795e-08
4.47683e-08
3.9747e-08
3.60782e-08
3.36857e-08
3.535e-08
4.04319e-08
4.53432e-08
4.80556e-08
4.85748e-08
4.63035e-08
4.20344e-08
4.02604e-08
4.24143e-08
4.43056e-08
4.3897e-08
4.46019e-08
4.61167e-08
4.52832e-08
4.67518e-08
5.27755e-08
5.52713e-08
5.48222e-08
5.60148e-08
5.47896e-08
4.92224e-08
4.58943e-08
4.72963e-08
4.88657e-08
4.54326e-08
4.09703e-08
3.85161e-08
3.49781e-08
3.04097e-08
2.92799e-08
3.55054e-08
4.79252e-08
5.92267e-08
6.38617e-08
6.14111e-08
5.36519e-08
4.52333e-08
3.99745e-08
3.62501e-08
3.37456e-08
3.5237e-08
4.0268e-08
4.54643e-08
4.86449e-08
4.93155e-08
4.68636e-08
4.23557e-08
4.0356e-08
4.2442e-08
4.4538e-08
4.42566e-08
4.48138e-08
4.62819e-08
4.55065e-08
4.69166e-08
5.29567e-08
5.55744e-08
5.50184e-08
5.65404e-08
5.56331e-08
4.98685e-08
4.60278e-08
4.73497e-08
4.91463e-08
4.59028e-08
4.15906e-08
3.93951e-08
3.57965e-08
3.09424e-08
2.96577e-08
3.61492e-08
4.89687e-08
6.04771e-08
6.52486e-08
6.28529e-08
5.49046e-08
4.6118e-08
4.05519e-08
3.64931e-08
3.36812e-08
3.49229e-08
3.97133e-08
4.52443e-08
4.93726e-08
5.06676e-08
4.80653e-08
4.30869e-08
4.05677e-08
4.23111e-08
4.45838e-08
4.46512e-08
4.49838e-08
4.62557e-08
4.57052e-08
4.7122e-08
5.29509e-08
5.55772e-08
5.53144e-08
5.69849e-08
5.62886e-08
5.06357e-08
4.6398e-08
4.74513e-08
4.93785e-08
4.64226e-08
4.22618e-08
4.02233e-08
3.65595e-08
3.14376e-08
2.99095e-08
3.66357e-08
4.99815e-08
6.16678e-08
6.63593e-08
6.39756e-08
5.59002e-08
4.70016e-08
4.14783e-08
3.72004e-08
3.38266e-08
3.44735e-08
3.87184e-08
4.43076e-08
4.93956e-08
5.17579e-08
4.94739e-08
4.42215e-08
4.10501e-08
4.2006e-08
4.41602e-08
4.4613e-08
4.47637e-08
4.59597e-08
4.59693e-08
4.74686e-08
5.29113e-08
5.56033e-08
5.53792e-08
5.7218e-08
5.6668e-08
5.14055e-08
4.71599e-08
4.78545e-08
4.978e-08
4.71685e-08
4.28741e-08
4.05081e-08
3.66451e-08
3.16124e-08
3.01772e-08
3.68155e-08
5.02394e-08
6.19835e-08
6.64739e-08
6.40036e-08
5.62292e-08
4.76041e-08
4.25115e-08
3.83322e-08
3.44097e-08
3.41272e-08
3.73587e-08
4.26317e-08
4.81727e-08
5.15276e-08
5.01091e-08
4.52682e-08
4.17823e-08
4.19266e-08
4.3692e-08
4.44201e-08
4.43688e-08
4.53491e-08
4.61027e-08
4.7981e-08
5.2854e-08
5.53841e-08
5.49988e-08
5.67718e-08
5.61607e-08
5.14666e-08
4.79486e-08
4.89992e-08
5.12627e-08
4.87031e-08
4.34851e-08
4.00288e-08
3.61425e-08
3.17635e-08
3.06635e-08
3.67754e-08
4.93009e-08
6.05599e-08
6.49827e-08
6.27805e-08
5.57853e-08
4.79321e-08
4.33471e-08
3.94617e-08
3.51371e-08
3.37001e-08
3.58179e-08
4.07742e-08
4.66288e-08
5.05477e-08
4.99132e-08
4.58666e-08
4.26387e-08
4.23118e-08
4.36894e-08
4.46637e-08
4.45151e-08
4.49979e-08
4.58228e-08
4.78563e-08
5.22284e-08
5.46497e-08
5.41333e-08
5.47846e-08
5.36683e-08
5.02078e-08
4.82505e-08
5.04997e-08
5.34021e-08
5.05199e-08
4.3481e-08
3.8379e-08
3.47261e-08
3.15707e-08
3.09532e-08
3.62652e-08
4.71583e-08
5.71217e-08
6.14562e-08
6.02349e-08
5.48471e-08
4.81275e-08
4.37688e-08
3.98703e-08
3.53985e-08
3.34719e-08
3.49042e-08
3.93121e-08
4.52928e-08
4.95722e-08
4.93515e-08
4.57325e-08
4.27123e-08
4.23358e-08
4.37501e-08
4.46521e-08
4.4228e-08
4.42744e-08
4.47939e-08
4.65631e-08
5.07071e-08
5.36188e-08
5.22679e-08
5.14792e-08
5.02975e-08
4.87145e-08
4.8709e-08
5.19042e-08
5.49908e-08
5.15112e-08
4.27906e-08
3.61794e-08
3.28035e-08
3.06392e-08
3.0328e-08
3.48223e-08
4.44473e-08
5.35561e-08
5.78919e-08
5.7673e-08
5.39667e-08
4.87319e-08
4.46101e-08
4.00628e-08
3.50371e-08
3.30326e-08
3.43519e-08
3.8054e-08
4.35769e-08
4.82161e-08
4.86555e-08
4.54649e-08
4.23338e-08
4.17422e-08
4.31449e-08
4.39682e-08
4.34942e-08
4.36447e-08
4.37977e-08
4.46282e-08
4.83609e-08
5.18756e-08
4.93322e-08
4.88294e-08
4.82391e-08
4.77163e-08
4.87642e-08
5.21221e-08
5.44129e-08
5.03741e-08
4.12677e-08
3.40228e-08
3.06097e-08
2.91729e-08
2.9429e-08
3.35583e-08
4.21901e-08
5.06195e-08
5.49202e-08
5.53066e-08
5.29435e-08
4.91079e-08
4.51818e-08
4.00149e-08
3.4308e-08
3.2317e-08
3.39819e-08
3.72044e-08
4.19265e-08
4.63287e-08
4.73886e-08
4.51618e-08
4.24604e-08
4.13936e-08
4.23027e-08
4.30102e-08
4.30097e-08
4.37367e-08
4.36638e-08
4.32964e-08
4.56054e-08
4.869e-08
4.64548e-08
4.70385e-08
4.71168e-08
4.64756e-08
4.72472e-08
5.01483e-08
5.1776e-08
4.82133e-08
4.02385e-08
3.31244e-08
2.96287e-08
2.86632e-08
2.91742e-08
3.24803e-08
3.96846e-08
4.71166e-08
5.10267e-08
5.17122e-08
5.03212e-08
4.7523e-08
4.42531e-08
3.95243e-08
3.40173e-08
3.19333e-08
3.37485e-08
3.71467e-08
4.12149e-08
4.45297e-08
4.54847e-08
4.43688e-08
4.27001e-08
4.17881e-08
4.24473e-08
4.29651e-08
4.30794e-08
4.4053e-08
4.38931e-08
4.27669e-08
4.34685e-08
4.5358e-08
4.30249e-08
4.38917e-08
4.46449e-08
4.43106e-08
4.47656e-08
4.72651e-08
4.88397e-08
4.60958e-08
3.89737e-08
3.22737e-08
2.92494e-08
2.88852e-08
2.94643e-08
3.19142e-08
3.74665e-08
4.33597e-08
4.64436e-08
4.70536e-08
4.62421e-08
4.44943e-08
4.22063e-08
3.83757e-08
3.32684e-08
3.08114e-08
3.24221e-08
3.63822e-08
4.04168e-08
4.29056e-08
4.36407e-08
4.33764e-08
4.27292e-08
4.21984e-08
4.29341e-08
4.34296e-08
4.33533e-08
4.41818e-08
4.40462e-08
4.2413e-08
4.18833e-08
4.24604e-08
4.02784e-08
4.11428e-08
4.23102e-08
4.25035e-08
4.28868e-08
4.47617e-08
4.60649e-08
4.35044e-08
3.70809e-08
3.1099e-08
2.87922e-08
2.91869e-08
3.00595e-08
3.19598e-08
3.58425e-08
4.00137e-08
4.23453e-08
4.29848e-08
4.2976e-08
4.2124e-08
4.04033e-08
3.67397e-08
3.15988e-08
2.89783e-08
3.08049e-08
3.50498e-08
3.90448e-08
4.13401e-08
4.19956e-08
4.18277e-08
4.1347e-08
4.10598e-08
4.19724e-08
4.27566e-08
4.27115e-08
4.33237e-08
4.33415e-08
4.18635e-08
4.07856e-08
4.03535e-08
3.96888e-08
4.01674e-08
4.10361e-08
4.15592e-08
4.20505e-08
4.30215e-08
4.3412e-08
4.08415e-08
3.54624e-08
3.0611e-08
2.89915e-08
2.9768e-08
3.07116e-08
3.21304e-08
3.48559e-08
3.79432e-08
3.98664e-08
4.04269e-08
4.05948e-08
4.03597e-08
3.91182e-08
3.58314e-08
3.09109e-08
2.83749e-08
3.02306e-08
3.45423e-08
3.83868e-08
4.0717e-08
4.14195e-08
4.09373e-08
3.99564e-08
3.93738e-08
4.00623e-08
4.09022e-08
4.1079e-08
4.16741e-08
4.21208e-08
4.14246e-08
4.05319e-08
3.99517e-08
4.00091e-08
4.02656e-08
4.09356e-08
4.13727e-08
4.1475e-08
4.15317e-08
4.08588e-08
3.8356e-08
3.39863e-08
3.02082e-08
2.93911e-08
3.07314e-08
3.19431e-08
3.31162e-08
3.50198e-08
3.7241e-08
3.85282e-08
3.86125e-08
3.84595e-08
3.84057e-08
3.78488e-08
3.55344e-08
3.1304e-08
2.85685e-08
2.97296e-08
3.37552e-08
3.76911e-08
4.03029e-08
4.15604e-08
4.15893e-08
4.05657e-08
3.94606e-08
3.93812e-08
3.94899e-08
3.91539e-08
3.94576e-08
4.01951e-08
4.03687e-08
4.01863e-08
4.01257e-08
3.97849e-08
4.02694e-08
4.07961e-08
4.08584e-08
4.04452e-08
4.00518e-08
3.90838e-08
3.66407e-08
3.26729e-08
2.93712e-08
2.89892e-08
3.09572e-08
3.29177e-08
3.44362e-08
3.61143e-08
3.75922e-08
3.80004e-08
3.72835e-08
3.6356e-08
3.59934e-08
3.57953e-08
3.44901e-08
3.12082e-08
2.84165e-08
2.88688e-08
3.22488e-08
3.59927e-08
3.89027e-08
4.09247e-08
4.17555e-08
4.09991e-08
3.98056e-08
3.92745e-08
3.89268e-08
3.81485e-08
3.81045e-08
3.85999e-08
3.89381e-08
3.90896e-08
3.9451e-08
3.82891e-08
3.90741e-08
3.96167e-08
3.94494e-08
3.90599e-08
3.88002e-08
3.77277e-08
3.53353e-08
3.18698e-08
2.9002e-08
2.87947e-08
3.1162e-08
3.39378e-08
3.57448e-08
3.68151e-08
3.74934e-08
3.74125e-08
3.64329e-08
3.50899e-08
3.40228e-08
3.32775e-08
3.2348e-08
3.01875e-08
2.8124e-08
2.87179e-08
3.18408e-08
3.51759e-08
3.75313e-08
3.93253e-08
4.03035e-08
3.9759e-08
3.84996e-08
3.77618e-08
3.72871e-08
3.65707e-08
3.65356e-08
3.70977e-08
3.73072e-08
3.71769e-08
3.75158e-08
3.64167e-08
3.6718e-08
3.70193e-08
3.69017e-08
3.68006e-08
3.70666e-08
3.64866e-08
3.45044e-08
3.18684e-08
2.96981e-08
2.95968e-08
3.18094e-08
3.45326e-08
3.62969e-08
3.70617e-08
3.72685e-08
3.67661e-08
3.54514e-08
3.38526e-08
3.25554e-08
3.18545e-08
3.13128e-08
2.99331e-08
2.8628e-08
2.95642e-08
3.26594e-08
3.53975e-08
3.67622e-08
3.76396e-08
3.83372e-08
3.80809e-08
3.71015e-08
3.64782e-08
3.61928e-08
3.55198e-08
3.53752e-08
3.5957e-08
3.63006e-08
3.6193e-08
3.61877e-08
3.57411e-08
3.54351e-08
3.54494e-08
3.54154e-08
3.54378e-08
3.58953e-08
3.56014e-08
3.3994e-08
3.20624e-08
3.06113e-08
3.04302e-08
3.21264e-08
3.45519e-08
3.62439e-08
3.71055e-08
3.75467e-08
3.72901e-08
3.60664e-08
3.40794e-08
3.19441e-08
3.05402e-08
3.02041e-08
2.99518e-08
2.97172e-08
3.09633e-08
3.35523e-08
3.55172e-08
3.60763e-08
3.64761e-08
3.69743e-08
3.67972e-08
3.59832e-08
3.53641e-08
3.51105e-08
3.46344e-08
3.48237e-08
3.59239e-08
3.67089e-08
3.65977e-08
3.6134e-08
3.66453e-08
3.64416e-08
3.61257e-08
3.55804e-08
3.51472e-08
3.528e-08
3.48917e-08
3.31956e-08
3.15885e-08
3.08552e-08
3.0934e-08
3.21986e-08
3.41322e-08
3.53614e-08
3.59947e-08
3.66285e-08
3.68347e-08
3.61371e-08
3.4714e-08
3.27684e-08
3.07928e-08
2.97533e-08
2.94055e-08
2.95766e-08
3.11792e-08
3.37697e-08
3.54948e-08
3.57063e-08
3.57967e-08
3.61797e-08
3.58243e-08
3.49569e-08
3.45191e-08
3.47098e-08
3.44785e-08
3.41819e-08
3.48553e-08
3.5809e-08
3.62984e-08
3.6541e-08
3.58584e-08
3.55363e-08
3.49115e-08
3.43854e-08
3.41649e-08
3.44512e-08
3.44267e-08
3.3211e-08
3.19469e-08
3.14142e-08
3.12551e-08
3.17931e-08
3.3049e-08
3.3989e-08
3.45341e-08
3.51563e-08
3.53389e-08
3.46367e-08
3.34313e-08
3.20551e-08
3.06405e-08
2.99135e-08
2.98051e-08
2.98703e-08
3.08735e-08
3.30641e-08
3.51078e-08
3.60103e-08
3.65678e-08
3.71481e-08
3.68619e-08
3.56527e-08
3.47865e-08
3.48233e-08
3.46013e-08
3.40159e-08
3.41913e-08
3.48404e-08
3.52087e-08
3.55973e-08
3.50853e-08
3.48162e-08
3.38615e-08
3.28423e-08
3.22761e-08
3.24589e-08
3.27278e-08
3.2126e-08
3.13126e-08
3.13232e-08
3.19231e-08
3.27088e-08
3.38375e-08
3.45684e-08
3.45288e-08
3.43276e-08
3.37532e-08
3.26767e-08
3.15786e-08
3.07623e-08
3.01952e-08
3.01395e-08
3.04601e-08
3.0451e-08
3.05927e-08
3.17435e-08
3.3339e-08
3.4371e-08
3.52421e-08
3.62047e-08
3.63865e-08
3.56285e-08
3.48438e-08
3.48019e-08
3.46814e-08
3.40287e-08
3.39195e-08
3.43148e-08
3.45436e-08
3.48114e-08
3.40108e-08
3.4035e-08
3.34587e-08
3.26104e-08
3.18612e-08
3.15662e-08
3.17829e-08
3.1751e-08
3.1412e-08
3.1502e-08
3.22055e-08
3.2944e-08
3.35937e-08
3.40562e-08
3.3882e-08
3.35438e-08
3.30492e-08
3.2039e-08
3.09917e-08
3.01927e-08
2.95804e-08
2.96443e-08
3.03237e-08
3.07329e-08
3.07304e-08
3.15149e-08
3.27668e-08
3.32616e-08
3.36365e-08
3.44042e-08
3.48317e-08
3.47599e-08
3.44067e-08
3.43531e-08
3.44833e-08
3.40342e-08
3.3561e-08
3.34897e-08
3.35818e-08
3.37529e-08
3.28222e-08
3.28002e-08
3.2716e-08
3.26241e-08
3.25117e-08
3.22474e-08
3.20424e-08
3.19175e-08
3.14728e-08
3.09859e-08
3.10957e-08
3.15302e-08
3.18515e-08
3.22088e-08
3.24648e-08
3.25677e-08
3.2459e-08
3.19385e-08
3.14053e-08
3.08046e-08
2.99833e-08
2.9745e-08
3.03622e-08
3.07458e-08
3.04997e-08
3.09034e-08
3.22023e-08
3.31812e-08
3.3946e-08
3.49253e-08
3.53457e-08
3.51375e-08
3.45559e-08
3.3915e-08
3.37657e-08
3.34299e-08
3.28625e-08
3.25519e-08
3.27202e-08
3.28892e-08
3.25686e-08
3.19571e-08
3.16589e-08
3.1696e-08
3.19502e-08
3.23532e-08
3.29001e-08
3.35098e-08
3.35928e-08
3.29403e-08
3.218e-08
3.15517e-08
3.08081e-08
3.04288e-08
3.07018e-08
3.11616e-08
3.15622e-08
3.18962e-08
3.21433e-08
3.20443e-08
3.1669e-08
3.14709e-08
3.16379e-08
3.15232e-08
3.07353e-08
3.04302e-08
3.10278e-08
3.16774e-08
3.23842e-08
3.33921e-08
3.41086e-08
3.43696e-08
3.44965e-08
3.43412e-08
3.42104e-08
3.42588e-08
3.37221e-08
3.31111e-08
3.30872e-08
3.31261e-08
7.51241e-08
6.61095e-08
5.52007e-08
4.64408e-08
4.28443e-08
4.76112e-08
5.60626e-08
5.32103e-08
3.95922e-08
3.19958e-08
3.34648e-08
3.73528e-08
4.04343e-08
4.42219e-08
4.73805e-08
4.89324e-08
5.16253e-08
5.57656e-08
5.67572e-08
5.17657e-08
4.55949e-08
4.247e-08
3.9531e-08
3.61521e-08
3.78478e-08
4.46693e-08
5.00698e-08
5.09188e-08
4.69803e-08
4.11645e-08
3.95147e-08
4.41928e-08
5.22921e-08
5.80031e-08
6.18903e-08
6.45011e-08
6.02799e-08
5.59663e-08
6.35032e-08
7.47707e-08
7.56897e-08
6.66848e-08
5.56162e-08
4.67057e-08
4.30741e-08
4.79182e-08
5.65349e-08
5.37722e-08
4.00075e-08
3.2221e-08
3.35867e-08
3.74509e-08
4.06157e-08
4.44735e-08
4.76313e-08
4.9131e-08
5.18046e-08
5.59823e-08
5.70241e-08
5.19995e-08
4.57573e-08
4.26008e-08
3.96385e-08
3.62461e-08
3.79531e-08
4.48191e-08
5.02327e-08
5.10611e-08
4.70919e-08
4.12448e-08
3.95778e-08
4.42825e-08
5.24395e-08
5.81909e-08
6.21087e-08
6.48151e-08
6.06568e-08
5.6249e-08
6.37331e-08
7.51402e-08
7.53207e-08
6.64876e-08
5.55421e-08
4.67008e-08
4.32301e-08
4.84633e-08
5.74987e-08
5.47671e-08
4.05504e-08
3.25061e-08
3.38314e-08
3.7671e-08
4.09201e-08
4.49597e-08
4.81475e-08
4.94833e-08
5.2061e-08
5.63713e-08
5.75831e-08
5.24504e-08
4.58847e-08
4.25485e-08
3.9567e-08
3.61336e-08
3.79071e-08
4.50066e-08
5.05666e-08
5.132e-08
4.71146e-08
4.1014e-08
3.92985e-08
4.41734e-08
5.26158e-08
5.85516e-08
6.24073e-08
6.50198e-08
6.0732e-08
5.60301e-08
6.32853e-08
7.46682e-08
7.34465e-08
6.51818e-08
5.48849e-08
4.64089e-08
4.32584e-08
4.90584e-08
5.86631e-08
5.58508e-08
4.09824e-08
3.26443e-08
3.41391e-08
3.81514e-08
4.15509e-08
4.56647e-08
4.87123e-08
4.98207e-08
5.23435e-08
5.67407e-08
5.82015e-08
5.30757e-08
4.59753e-08
4.20047e-08
3.88033e-08
3.53504e-08
3.72251e-08
4.47588e-08
5.07138e-08
5.14788e-08
4.69736e-08
4.04182e-08
3.84595e-08
4.34239e-08
5.23219e-08
5.86228e-08
6.22017e-08
6.41918e-08
5.95291e-08
5.446e-08
6.13032e-08
7.25877e-08
7.09843e-08
6.33638e-08
5.38391e-08
4.60645e-08
4.34034e-08
4.94941e-08
5.93185e-08
5.63634e-08
4.09727e-08
3.23925e-08
3.42058e-08
3.85631e-08
4.22241e-08
4.63274e-08
4.91093e-08
4.99592e-08
5.2539e-08
5.70777e-08
5.86903e-08
5.37315e-08
4.62239e-08
4.13035e-08
3.74633e-08
3.38315e-08
3.57587e-08
4.38195e-08
5.04536e-08
5.14408e-08
4.66604e-08
3.96324e-08
3.73842e-08
4.22757e-08
5.14152e-08
5.80626e-08
6.12877e-08
6.24744e-08
5.76793e-08
5.25191e-08
5.88725e-08
6.99044e-08
6.84264e-08
6.14014e-08
5.25998e-08
4.55408e-08
4.34566e-08
4.96699e-08
5.92488e-08
5.63137e-08
4.09219e-08
3.1932e-08
3.35327e-08
3.79701e-08
4.18969e-08
4.64204e-08
4.93455e-08
4.99161e-08
5.22671e-08
5.67496e-08
5.87019e-08
5.44633e-08
4.70174e-08
4.08921e-08
3.58848e-08
3.20063e-08
3.39051e-08
4.23178e-08
4.98212e-08
5.12723e-08
4.63767e-08
3.89732e-08
3.64826e-08
4.13193e-08
5.03318e-08
5.69656e-08
5.97102e-08
6.02909e-08
5.60808e-08
5.14868e-08
5.72914e-08
6.73623e-08
6.55045e-08
5.91766e-08
5.13092e-08
4.50791e-08
4.34947e-08
4.9619e-08
5.88394e-08
5.65192e-08
4.17021e-08
3.17964e-08
3.22702e-08
3.64047e-08
4.10163e-08
4.61875e-08
4.90758e-08
4.90747e-08
5.05424e-08
5.45389e-08
5.70293e-08
5.41873e-08
4.75935e-08
4.08618e-08
3.4774e-08
3.04797e-08
3.20725e-08
4.04962e-08
4.88198e-08
5.09338e-08
4.61099e-08
3.85376e-08
3.58692e-08
4.06797e-08
4.91941e-08
5.53086e-08
5.72158e-08
5.70767e-08
5.36677e-08
5.0277e-08
5.57579e-08
6.46936e-08
6.21935e-08
5.64816e-08
4.98933e-08
4.52585e-08
4.4711e-08
5.08355e-08
5.95633e-08
5.76348e-08
4.2673e-08
3.12726e-08
3.09012e-08
3.52242e-08
4.01753e-08
4.51708e-08
4.73309e-08
4.65077e-08
4.74725e-08
5.13573e-08
5.42308e-08
5.23874e-08
4.69786e-08
4.05581e-08
3.41606e-08
2.96411e-08
3.07695e-08
3.8717e-08
4.73466e-08
5.00189e-08
4.5723e-08
3.84727e-08
3.55248e-08
3.99903e-08
4.7955e-08
5.34192e-08
5.45405e-08
5.36421e-08
5.05331e-08
4.80815e-08
5.34096e-08
6.1513e-08
5.9056e-08
5.42218e-08
4.92369e-08
4.6063e-08
4.64372e-08
5.25952e-08
6.06355e-08
5.85327e-08
4.3757e-08
3.1555e-08
3.03987e-08
3.48156e-08
3.97507e-08
4.38042e-08
4.48807e-08
4.36273e-08
4.47931e-08
4.88162e-08
5.17822e-08
5.06375e-08
4.61107e-08
4.0115e-08
3.38625e-08
2.936e-08
2.99178e-08
3.66889e-08
4.46979e-08
4.78188e-08
4.49228e-08
3.90852e-08
3.60221e-08
3.90558e-08
4.55295e-08
5.02839e-08
5.14375e-08
5.06327e-08
4.79116e-08
4.57688e-08
5.04349e-08
5.80463e-08
5.54444e-08
5.26756e-08
4.93082e-08
4.67132e-08
4.68264e-08
5.22297e-08
5.96508e-08
5.8318e-08
4.51333e-08
3.28993e-08
3.07053e-08
3.4597e-08
3.91752e-08
4.22497e-08
4.26049e-08
4.16078e-08
4.3083e-08
4.73048e-08
5.05483e-08
5.00762e-08
4.63128e-08
4.06174e-08
3.42949e-08
2.96653e-08
2.95828e-08
3.48041e-08
4.15521e-08
4.47922e-08
4.35875e-08
3.96916e-08
3.68687e-08
3.8352e-08
4.29856e-08
4.7205e-08
4.91553e-08
4.90917e-08
4.67148e-08
4.40147e-08
4.68107e-08
5.33549e-08
5.10357e-08
5.07302e-08
4.93013e-08
4.69505e-08
4.5601e-08
4.87212e-08
5.4755e-08
5.48552e-08
4.46579e-08
3.34951e-08
3.0633e-08
3.38239e-08
3.78222e-08
4.03606e-08
4.10482e-08
4.0821e-08
4.25517e-08
4.65669e-08
4.98254e-08
4.96377e-08
4.64037e-08
4.10628e-08
3.4806e-08
3.02241e-08
3.00106e-08
3.43732e-08
3.99911e-08
4.29132e-08
4.2619e-08
3.99987e-08
3.77362e-08
3.85485e-08
4.19253e-08
4.55454e-08
4.77636e-08
4.79929e-08
4.58702e-08
4.33006e-08
4.4309e-08
4.84944e-08
4.73462e-08
4.84534e-08
4.85342e-08
4.63732e-08
4.33806e-08
4.37934e-08
4.76984e-08
4.84532e-08
4.13221e-08
3.2594e-08
3.01901e-08
3.30295e-08
3.64036e-08
3.86788e-08
3.98653e-08
4.03253e-08
4.20501e-08
4.54856e-08
4.79796e-08
4.73573e-08
4.44788e-08
3.99712e-08
3.43674e-08
3.02911e-08
3.05241e-08
3.47846e-08
3.97121e-08
4.22154e-08
4.22628e-08
4.07966e-08
3.96476e-08
4.05898e-08
4.30917e-08
4.58704e-08
4.76259e-08
4.74222e-08
4.53334e-08
4.29622e-08
4.29017e-08
4.52292e-08
4.52729e-08
4.68402e-08
4.76571e-08
4.57568e-08
4.20012e-08
4.08902e-08
4.34952e-08
4.42545e-08
3.86191e-08
3.15199e-08
2.95131e-08
3.1848e-08
3.45645e-08
3.66236e-08
3.79249e-08
3.84869e-08
4.0091e-08
4.36145e-08
4.6288e-08
4.55352e-08
4.25004e-08
3.83728e-08
3.34799e-08
3.01934e-08
3.11339e-08
3.55167e-08
4.00766e-08
4.25046e-08
4.31377e-08
4.27515e-08
4.24687e-08
4.31503e-08
4.47255e-08
4.65923e-08
4.77148e-08
4.67153e-08
4.40219e-08
4.16916e-08
4.15615e-08
4.33981e-08
4.42446e-08
4.57595e-08
4.66287e-08
4.54698e-08
4.24665e-08
4.06232e-08
4.17881e-08
4.18033e-08
3.66842e-08
3.064e-08
2.91948e-08
3.15286e-08
3.40259e-08
3.58861e-08
3.67168e-08
3.66127e-08
3.7284e-08
4.03821e-08
4.37279e-08
4.39491e-08
4.16119e-08
3.78907e-08
3.34341e-08
3.06261e-08
3.22112e-08
3.66894e-08
4.06122e-08
4.25999e-08
4.37595e-08
4.39095e-08
4.33091e-08
4.29194e-08
4.325e-08
4.41888e-08
4.47929e-08
4.38815e-08
4.17704e-08
4.00812e-08
4.03666e-08
4.23092e-08
4.24668e-08
4.40179e-08
4.49293e-08
4.44063e-08
4.25245e-08
4.08314e-08
4.04879e-08
3.91792e-08
3.42546e-08
2.916e-08
2.83651e-08
3.09308e-08
3.37022e-08
3.56071e-08
3.644e-08
3.60738e-08
3.62592e-08
3.87302e-08
4.19251e-08
4.27341e-08
4.09293e-08
3.75365e-08
3.32434e-08
3.05762e-08
3.22507e-08
3.66573e-08
4.02315e-08
4.1873e-08
4.25632e-08
4.2085e-08
4.08763e-08
4.03888e-08
4.07556e-08
4.11367e-08
4.14488e-08
4.09883e-08
3.984e-08
3.88847e-08
3.90696e-08
4.06073e-08
3.95966e-08
4.10469e-08
4.23599e-08
4.27798e-08
4.20112e-08
4.0733e-08
3.96635e-08
3.76378e-08
3.29461e-08
2.83434e-08
2.75822e-08
3.00272e-08
3.30321e-08
3.53653e-08
3.65695e-08
3.64255e-08
3.61991e-08
3.7603e-08
3.99632e-08
4.08313e-08
3.94865e-08
3.62907e-08
3.18826e-08
2.88135e-08
3.0195e-08
3.49569e-08
3.92205e-08
4.13333e-08
4.18023e-08
4.07165e-08
3.88798e-08
3.78521e-08
3.79569e-08
3.8296e-08
3.87435e-08
3.89645e-08
3.83707e-08
3.76776e-08
3.74434e-08
3.81807e-08
3.79064e-08
3.91678e-08
4.05388e-08
4.11041e-08
4.07017e-08
3.9772e-08
3.83238e-08
3.57708e-08
3.16767e-08
2.80802e-08
2.77721e-08
3.03444e-08
3.3469e-08
3.56991e-08
3.65697e-08
3.62317e-08
3.54068e-08
3.5491e-08
3.67463e-08
3.7486e-08
3.65746e-08
3.42855e-08
3.08355e-08
2.83827e-08
2.97622e-08
3.42189e-08
3.84616e-08
4.05552e-08
4.09515e-08
3.97548e-08
3.75321e-08
3.57759e-08
3.5459e-08
3.56246e-08
3.6134e-08
3.67872e-08
3.67982e-08
3.65935e-08
3.65876e-08
3.70325e-08
3.62048e-08
3.73028e-08
3.83478e-08
3.85557e-08
3.84164e-08
3.8024e-08
3.66109e-08
3.41513e-08
3.09525e-08
2.84259e-08
2.858e-08
3.09904e-08
3.38209e-08
3.58657e-08
3.68138e-08
3.67374e-08
3.56295e-08
3.46087e-08
3.46218e-08
3.47145e-08
3.40906e-08
3.25135e-08
3.00143e-08
2.8318e-08
2.99877e-08
3.431e-08
3.82109e-08
4.0086e-08
4.02003e-08
3.90114e-08
3.69041e-08
3.49318e-08
3.44058e-08
3.46503e-08
3.47461e-08
3.49355e-08
3.51035e-08
3.52194e-08
3.53627e-08
3.56104e-08
3.62691e-08
3.63084e-08
3.65942e-08
3.6303e-08
3.58501e-08
3.56442e-08
3.46558e-08
3.29168e-08
3.09808e-08
2.96694e-08
2.99258e-08
3.18868e-08
3.44932e-08
3.6574e-08
3.78175e-08
3.81468e-08
3.72131e-08
3.54168e-08
3.39373e-08
3.27251e-08
3.14998e-08
3.04738e-08
2.93473e-08
2.87534e-08
3.04567e-08
3.39733e-08
3.70838e-08
3.85233e-08
3.86068e-08
3.77731e-08
3.58818e-08
3.3923e-08
3.33819e-08
3.36442e-08
3.37264e-08
3.40007e-08
3.48636e-08
3.57518e-08
3.62648e-08
3.64301e-08
3.71999e-08
3.72718e-08
3.73751e-08
3.69187e-08
3.61321e-08
3.58635e-08
3.50705e-08
3.32165e-08
3.1222e-08
2.99854e-08
2.98727e-08
3.13982e-08
3.40385e-08
3.64689e-08
3.82381e-08
3.92707e-08
3.87481e-08
3.67789e-08
3.46388e-08
3.26193e-08
3.06075e-08
2.91693e-08
2.82714e-08
2.82543e-08
3.0405e-08
3.41937e-08
3.72367e-08
3.81984e-08
3.80059e-08
3.71397e-08
3.50184e-08
3.28926e-08
3.23109e-08
3.29349e-08
3.32787e-08
3.35005e-08
3.43994e-08
3.55209e-08
3.63811e-08
3.69979e-08
3.77256e-08
3.74014e-08
3.68457e-08
3.60571e-08
3.50769e-08
3.45907e-08
3.40059e-08
3.24689e-08
3.09898e-08
3.04258e-08
3.05857e-08
3.19122e-08
3.41982e-08
3.62548e-08
3.75921e-08
3.8219e-08
3.75707e-08
3.5648e-08
3.34296e-08
3.15346e-08
2.97886e-08
2.87185e-08
2.83394e-08
2.85468e-08
3.05143e-08
3.42799e-08
3.75197e-08
3.87364e-08
3.88893e-08
3.83032e-08
3.64905e-08
3.40406e-08
3.26798e-08
3.27684e-08
3.30118e-08
3.31988e-08
3.41217e-08
3.53397e-08
3.64017e-08
3.73479e-08
3.60593e-08
3.57147e-08
3.4802e-08
3.37819e-08
3.28497e-08
3.24688e-08
3.21705e-08
3.10409e-08
3.01046e-08
3.05317e-08
3.17885e-08
3.3334e-08
3.49432e-08
3.58659e-08
3.58036e-08
3.52678e-08
3.41608e-08
3.25419e-08
3.11169e-08
3.03074e-08
2.97638e-08
2.97562e-08
3.03008e-08
3.05984e-08
3.11817e-08
3.29108e-08
3.45856e-08
3.53115e-08
3.59216e-08
3.67468e-08
3.6859e-08
3.58699e-08
3.45939e-08
3.39125e-08
3.33635e-08
3.27287e-08
3.30265e-08
3.3949e-08
3.47723e-08
3.55725e-08
3.39457e-08
3.36924e-08
3.28951e-08
3.19635e-08
3.11598e-08
3.09065e-08
3.11052e-08
3.09967e-08
3.07657e-08
3.11391e-08
3.21409e-08
3.32339e-08
3.41438e-08
3.46469e-08
3.44924e-08
3.4066e-08
3.33496e-08
3.19345e-08
3.05067e-08
2.96333e-08
2.92167e-08
2.94796e-08
3.04837e-08
3.12575e-08
3.15142e-08
3.2459e-08
3.3575e-08
3.37774e-08
3.38815e-08
3.45509e-08
3.49899e-08
3.46973e-08
3.38926e-08
3.34541e-08
3.33555e-08
3.28503e-08
3.27296e-08
3.31246e-08
3.35054e-08
3.37932e-08
3.29318e-08
3.2778e-08
3.23477e-08
3.19823e-08
3.19347e-08
3.19415e-08
3.19608e-08
3.19167e-08
3.15382e-08
3.10979e-08
3.11439e-08
3.16338e-08
3.20922e-08
3.24708e-08
3.26764e-08
3.27601e-08
3.24203e-08
3.15766e-08
3.08005e-08
3.02655e-08
2.96252e-08
2.94794e-08
3.00693e-08
3.04556e-08
3.01843e-08
3.05151e-08
3.16529e-08
3.2372e-08
3.28855e-08
3.3913e-08
3.46106e-08
3.46404e-08
3.41387e-08
3.35776e-08
3.32687e-08
3.26534e-08
3.20461e-08
3.198e-08
3.24986e-08
3.28797e-08
3.27335e-08
3.20446e-08
3.14926e-08
3.13219e-08
3.16522e-08
3.22198e-08
3.27911e-08
3.32732e-08
3.32957e-08
3.25617e-08
3.18898e-08
3.15104e-08
3.10577e-08
3.07931e-08
3.09468e-08
3.12065e-08
3.13366e-08
3.14711e-08
3.15821e-08
3.15871e-08
3.13279e-08
3.1029e-08
3.09737e-08
3.06784e-08
2.98918e-08
2.97359e-08
3.05585e-08
3.12944e-08
3.19055e-08
3.28671e-08
3.34348e-08
3.35369e-08
3.35329e-08
3.34245e-08
3.35572e-08
3.37866e-08
3.34187e-08
3.31076e-08
3.33214e-08
3.33374e-08
5.92572e-08
5.68988e-08
5.22116e-08
4.60366e-08
4.57623e-08
5.25113e-08
5.8969e-08
5.56585e-08
4.32806e-08
3.7155e-08
4.5305e-08
5.68395e-08
6.22302e-08
6.2348e-08
5.8547e-08
5.41581e-08
5.331e-08
5.59192e-08
6.03301e-08
6.2843e-08
6.05337e-08
5.48209e-08
4.62424e-08
3.81564e-08
3.7955e-08
4.46465e-08
4.90686e-08
4.91865e-08
4.66745e-08
4.20732e-08
3.99318e-08
4.19588e-08
4.26932e-08
4.29613e-08
4.78361e-08
5.20278e-08
5.04655e-08
5.13593e-08
5.78364e-08
6.10785e-08
5.95822e-08
5.72385e-08
5.2569e-08
4.63464e-08
4.61126e-08
5.30233e-08
5.96589e-08
5.64439e-08
4.39377e-08
3.74663e-08
4.54753e-08
5.71469e-08
6.27043e-08
6.27879e-08
5.87564e-08
5.41993e-08
5.3362e-08
5.60616e-08
6.05317e-08
6.30308e-08
6.06473e-08
5.49218e-08
4.64107e-08
3.83304e-08
3.81032e-08
4.48432e-08
4.93008e-08
4.93711e-08
4.68184e-08
4.21887e-08
4.00402e-08
4.2116e-08
4.28374e-08
4.30274e-08
4.79091e-08
5.21993e-08
5.06223e-08
5.15102e-08
5.81125e-08
6.14247e-08
5.99789e-08
5.7723e-08
5.32257e-08
4.70491e-08
4.68841e-08
5.40329e-08
6.09859e-08
5.78576e-08
4.50363e-08
3.81752e-08
4.59038e-08
5.75538e-08
6.33218e-08
6.34547e-08
5.91179e-08
5.41651e-08
5.31799e-08
5.60881e-08
6.08437e-08
6.34079e-08
6.09094e-08
5.51292e-08
4.66866e-08
3.86026e-08
3.83072e-08
4.51749e-08
4.98402e-08
4.98767e-08
4.71574e-08
4.22662e-08
4.00039e-08
4.22983e-08
4.31775e-08
4.32995e-08
4.81783e-08
5.25088e-08
5.09696e-08
5.19303e-08
5.86983e-08
6.19397e-08
5.97801e-08
5.81667e-08
5.43017e-08
4.82003e-08
4.78913e-08
5.49962e-08
6.19823e-08
5.89173e-08
4.6374e-08
3.92508e-08
4.59015e-08
5.69394e-08
6.27876e-08
6.32169e-08
5.88994e-08
5.37046e-08
5.25493e-08
5.56723e-08
6.07576e-08
6.33222e-08
6.06527e-08
5.5011e-08
4.69223e-08
3.88966e-08
3.83755e-08
4.53615e-08
5.04298e-08
5.05967e-08
4.77414e-08
4.25438e-08
3.99176e-08
4.23524e-08
4.35705e-08
4.37317e-08
4.86017e-08
5.29656e-08
5.13993e-08
5.23455e-08
5.89772e-08
6.17823e-08
5.91714e-08
5.84049e-08
5.55773e-08
4.96892e-08
4.8689e-08
5.47884e-08
6.10169e-08
5.88677e-08
4.79747e-08
4.03009e-08
4.46688e-08
5.41862e-08
6.02422e-08
6.1588e-08
5.78747e-08
5.27041e-08
5.15098e-08
5.47303e-08
6.00287e-08
6.25732e-08
5.98393e-08
5.4489e-08
4.69078e-08
3.89754e-08
3.81269e-08
4.51283e-08
5.06844e-08
5.12602e-08
4.84175e-08
4.28881e-08
3.99309e-08
4.25662e-08
4.44171e-08
4.47675e-08
4.93494e-08
5.35343e-08
5.19341e-08
5.28752e-08
5.91416e-08
6.12345e-08
5.80089e-08
5.75909e-08
5.5934e-08
5.0962e-08
4.92375e-08
5.32739e-08
5.93868e-08
5.93939e-08
5.00067e-08
4.06013e-08
4.22053e-08
5.0137e-08
5.63366e-08
5.86855e-08
5.57848e-08
5.09581e-08
5.00776e-08
5.35021e-08
5.87788e-08
6.14123e-08
5.89268e-08
5.37985e-08
4.64954e-08
3.86981e-08
3.75192e-08
4.43427e-08
5.03324e-08
5.15714e-08
4.89242e-08
4.3119e-08
3.98826e-08
4.27675e-08
4.54006e-08
4.60731e-08
5.01913e-08
5.40044e-08
5.23829e-08
5.3489e-08
5.94368e-08
6.06427e-08
5.61251e-08
5.57483e-08
5.55737e-08
5.21071e-08
5.0019e-08
5.27948e-08
5.9254e-08
6.10781e-08
5.0576e-08
3.92406e-08
3.98967e-08
4.70857e-08
5.30551e-08
5.55673e-08
5.29233e-08
4.87148e-08
4.84048e-08
5.22309e-08
5.74894e-08
6.00796e-08
5.79439e-08
5.30244e-08
4.58644e-08
3.83388e-08
3.7003e-08
4.32896e-08
4.95574e-08
5.16281e-08
4.94571e-08
4.33911e-08
3.96405e-08
4.23826e-08
4.59022e-08
4.71268e-08
5.05166e-08
5.34535e-08
5.1959e-08
5.36449e-08
5.96112e-08
5.97774e-08
5.47088e-08
5.40869e-08
5.48336e-08
5.30837e-08
5.12468e-08
5.31981e-08
5.89714e-08
5.93544e-08
4.78694e-08
3.77612e-08
3.86619e-08
4.53742e-08
5.09557e-08
5.3091e-08
5.04782e-08
4.67188e-08
4.68336e-08
5.0863e-08
5.58182e-08
5.80199e-08
5.60614e-08
5.18387e-08
4.56922e-08
3.90464e-08
3.76508e-08
4.3042e-08
4.88538e-08
5.12672e-08
4.95532e-08
4.36278e-08
3.93666e-08
4.1509e-08
4.53362e-08
4.73101e-08
5.02477e-08
5.20262e-08
5.03899e-08
5.24585e-08
5.86639e-08
5.88213e-08
5.41067e-08
5.27525e-08
5.32005e-08
5.21992e-08
5.08023e-08
5.20091e-08
5.56128e-08
5.47246e-08
4.58672e-08
3.77271e-08
3.8161e-08
4.3973e-08
4.88753e-08
5.05119e-08
4.79326e-08
4.45246e-08
4.51772e-08
4.94197e-08
5.40599e-08
5.57401e-08
5.36201e-08
4.96555e-08
4.45775e-08
3.94771e-08
3.84773e-08
4.26191e-08
4.74745e-08
5.00072e-08
4.91145e-08
4.40905e-08
3.97382e-08
4.09446e-08
4.42138e-08
4.66442e-08
4.95969e-08
5.09118e-08
4.9013e-08
5.06572e-08
5.68237e-08
5.79015e-08
5.3759e-08
5.24166e-08
5.25989e-08
5.17169e-08
5.01932e-08
4.95683e-08
5.06004e-08
4.98804e-08
4.37175e-08
3.71601e-08
3.73421e-08
4.20623e-08
4.60963e-08
4.73805e-08
4.50253e-08
4.22438e-08
4.35356e-08
4.8127e-08
5.27273e-08
5.43979e-08
5.19894e-08
4.73307e-08
4.22772e-08
3.81888e-08
3.78322e-08
4.17027e-08
4.64645e-08
4.94755e-08
4.95711e-08
4.55309e-08
4.09542e-08
4.08337e-08
4.3269e-08
4.58064e-08
4.87891e-08
4.99763e-08
4.81142e-08
4.91711e-08
5.47666e-08
5.66414e-08
5.3536e-08
5.3283e-08
5.38904e-08
5.28671e-08
5.0371e-08
4.7696e-08
4.63652e-08
4.46038e-08
3.93516e-08
3.4553e-08
3.52883e-08
3.92122e-08
4.26728e-08
4.3939e-08
4.20378e-08
3.99416e-08
4.20724e-08
4.74713e-08
5.24506e-08
5.4015e-08
5.1474e-08
4.66462e-08
4.1297e-08
3.71686e-08
3.66983e-08
4.01428e-08
4.46975e-08
4.82158e-08
4.93001e-08
4.63964e-08
4.19509e-08
4.07717e-08
4.2386e-08
4.46923e-08
4.76556e-08
4.89466e-08
4.74862e-08
4.86388e-08
5.34611e-08
5.52481e-08
5.26293e-08
5.33713e-08
5.4881e-08
5.37045e-08
4.98195e-08
4.59697e-08
4.3387e-08
4.02343e-08