/*--------------------------------*- C++ -*----------------------------------*\
| =========                 |                                                 |
| \\      /  F ield         | OpenFOAM: The Open Source CFD Toolbox           |
|  \\    /   O peration     | Version:  2.3.0                                 |
|   \\  /    A nd           | Web:      www.OpenFOAM.org                      |
|    \\/     M anipulation  |                                                 |
\*---------------------------------------------------------------------------*/
FoamFile
{
    version     2.0;
    format      ascii;
    class       volScalarField;
    location    "200";
    object      pPrime2Mean;
}
// * * * * * * * * * * * * * * * * * * * * * * * * * * * * * * * * * * * * * //

dimensions      [0 4 -4 0 0 0 0];

internalField   nonuniform List<scalar> 
90000
(
8.64956e-05
8.65119e-05
8.65215e-05
8.64527e-05
8.64172e-05
8.64264e-05
8.64946e-05
8.65892e-05
8.66703e-05
8.68184e-05
8.70117e-05
8.71757e-05
8.73627e-05
8.73302e-05
8.57193e-05
8.61096e-05
8.62977e-05
8.63619e-05
8.63733e-05
8.63918e-05
8.64693e-05
8.66333e-05
8.68871e-05
8.71831e-05
8.74633e-05
8.57673e-05
8.59668e-05
8.60977e-05
8.61858e-05
8.62754e-05
8.63712e-05
8.65424e-05
8.66971e-05
8.67963e-05
8.69028e-05
8.70442e-05
8.72179e-05
8.74537e-05
8.76272e-05
8.57357e-05
8.60606e-05
8.64522e-05
8.68306e-05
8.71282e-05
8.73765e-05
8.76171e-05
8.78342e-05
8.81002e-05
8.83776e-05
8.85224e-05
8.64783e-05
8.65098e-05
8.65198e-05
8.64506e-05
8.64149e-05
8.64253e-05
8.64948e-05
8.65898e-05
8.66696e-05
8.68163e-05
8.70083e-05
8.71691e-05
8.73576e-05
8.73438e-05
8.56966e-05
8.61096e-05
8.62982e-05
8.63632e-05
8.63748e-05
8.63911e-05
8.64702e-05
8.66371e-05
8.68862e-05
8.718e-05
8.74843e-05
8.57462e-05
8.59676e-05
8.60948e-05
8.61805e-05
8.62718e-05
8.63674e-05
8.65371e-05
8.66931e-05
8.67937e-05
8.69011e-05
8.70432e-05
8.72177e-05
8.7454e-05
8.76511e-05
8.57178e-05
8.60657e-05
8.64624e-05
8.68311e-05
8.71281e-05
8.73781e-05
8.76176e-05
8.78328e-05
8.80961e-05
8.83657e-05
8.85457e-05
8.64429e-05
8.65056e-05
8.65172e-05
8.64454e-05
8.64091e-05
8.64226e-05
8.64945e-05
8.65909e-05
8.6675e-05
8.68235e-05
8.70177e-05
8.71815e-05
8.73653e-05
8.73708e-05
8.56775e-05
8.61086e-05
8.62993e-05
8.63621e-05
8.63692e-05
8.63882e-05
8.64673e-05
8.66282e-05
8.68802e-05
8.71745e-05
8.75073e-05
8.57256e-05
8.59658e-05
8.60966e-05
8.61898e-05
8.6285e-05
8.63827e-05
8.65435e-05
8.66921e-05
8.67903e-05
8.68984e-05
8.70405e-05
8.72135e-05
8.74457e-05
8.76666e-05
8.56962e-05
8.60649e-05
8.64613e-05
8.6825e-05
8.71259e-05
8.73721e-05
8.76089e-05
8.78245e-05
8.80927e-05
8.83654e-05
8.8568e-05
8.64235e-05
8.65081e-05
8.65199e-05
8.64453e-05
8.64066e-05
8.64222e-05
8.64936e-05
8.65862e-05
8.66622e-05
8.68132e-05
8.7005e-05
8.71642e-05
8.73467e-05
8.73815e-05
8.5658e-05
8.61018e-05
8.6299e-05
8.63644e-05
8.63686e-05
8.63893e-05
8.64796e-05
8.66471e-05
8.68924e-05
8.71724e-05
8.75365e-05
8.57111e-05
8.59633e-05
8.60922e-05
8.61726e-05
8.62625e-05
8.63773e-05
8.65314e-05
8.66784e-05
8.67814e-05
8.68944e-05
8.7034e-05
8.72094e-05
8.74453e-05
8.76923e-05
8.56953e-05
8.60809e-05
8.64754e-05
8.68288e-05
8.71302e-05
8.73763e-05
8.76129e-05
8.78235e-05
8.80844e-05
8.83351e-05
8.85829e-05
8.64149e-05
8.65181e-05
8.65069e-05
8.64265e-05
8.63954e-05
8.64141e-05
8.64872e-05
8.65783e-05
8.66692e-05
8.68263e-05
8.70404e-05
8.72127e-05
8.73797e-05
8.74305e-05
8.56539e-05
8.61007e-05
8.62998e-05
8.63578e-05
8.63519e-05
8.63677e-05
8.64602e-05
8.66215e-05
8.68685e-05
8.71485e-05
8.75373e-05
8.57013e-05
8.59654e-05
8.61054e-05
8.62004e-05
8.63059e-05
8.6413e-05
8.65493e-05
8.66754e-05
8.67753e-05
8.68947e-05
8.70331e-05
8.72132e-05
8.74332e-05
8.7704e-05
8.56858e-05
8.60774e-05
8.64595e-05
8.68181e-05
8.71196e-05
8.73531e-05
8.75916e-05
8.78031e-05
8.80794e-05
8.8313e-05
8.85945e-05
8.6359e-05
8.65324e-05
8.65404e-05
8.64583e-05
8.64066e-05
8.6418e-05
8.64825e-05
8.65608e-05
8.66351e-05
8.67914e-05
8.69872e-05
8.71585e-05
8.73354e-05
8.74096e-05
8.56336e-05
8.60886e-05
8.62894e-05
8.63554e-05
8.63569e-05
8.63835e-05
8.64835e-05
8.66443e-05
8.68805e-05
8.71388e-05
8.75525e-05
8.56977e-05
8.59798e-05
8.61112e-05
8.61763e-05
8.62623e-05
8.64019e-05
8.65333e-05
8.66562e-05
8.67645e-05
8.68731e-05
8.6996e-05
8.7183e-05
8.74135e-05
8.77304e-05
8.57029e-05
8.60996e-05
8.64851e-05
8.685e-05
8.71629e-05
8.73874e-05
8.76097e-05
8.78212e-05
8.80637e-05
8.82746e-05
8.8547e-05
8.64315e-05
8.65548e-05
8.65096e-05
8.64154e-05
8.63637e-05
8.63827e-05
8.64586e-05
8.6548e-05
8.66505e-05
8.68252e-05
8.70456e-05
8.7216e-05
8.73656e-05
8.74338e-05
8.56418e-05
8.60985e-05
8.63161e-05
8.63818e-05
8.63372e-05
8.63419e-05
8.64525e-05
8.66176e-05
8.68521e-05
8.71044e-05
8.75456e-05
8.56937e-05
8.59367e-05
8.60891e-05
8.62043e-05
8.63151e-05
8.64404e-05
8.656e-05
8.66748e-05
8.6808e-05
8.69357e-05
8.70455e-05
8.72081e-05
8.74096e-05
8.7702e-05
8.5674e-05
8.60876e-05
8.64635e-05
8.68214e-05
8.71183e-05
8.73383e-05
8.75698e-05
8.77804e-05
8.80443e-05
8.8238e-05
8.8581e-05
8.63359e-05
8.65235e-05
8.65121e-05
8.64158e-05
8.6355e-05
8.6375e-05
8.6458e-05
8.65586e-05
8.66325e-05
8.67802e-05
8.69766e-05
8.71706e-05
8.73335e-05
8.74392e-05
8.5663e-05
8.60929e-05
8.62767e-05
8.634e-05
8.63432e-05
8.63756e-05
8.64826e-05
8.66164e-05
8.68355e-05
8.71006e-05
8.75862e-05
8.57619e-05
8.60115e-05
8.61139e-05
8.6175e-05
8.62426e-05
8.63795e-05
8.65348e-05
8.66599e-05
8.67892e-05
8.68877e-05
8.6983e-05
8.71445e-05
8.73607e-05
8.76932e-05
8.57128e-05
8.61168e-05
8.6483e-05
8.68227e-05
8.71302e-05
8.73397e-05
8.75664e-05
8.77887e-05
8.80559e-05
8.82192e-05
8.84989e-05
8.63831e-05
8.6576e-05
8.65255e-05
8.64246e-05
8.6372e-05
8.63766e-05
8.6419e-05
8.65152e-05
8.66211e-05
8.68175e-05
8.70393e-05
8.71978e-05
8.73132e-05
8.74102e-05
8.5694e-05
8.6166e-05
8.63721e-05
8.64157e-05
8.63414e-05
8.63261e-05
8.64074e-05
8.65642e-05
8.67868e-05
8.70484e-05
8.75368e-05
8.57169e-05
8.59418e-05
8.60747e-05
8.61576e-05
8.6249e-05
8.64213e-05
8.65629e-05
8.66778e-05
8.67861e-05
8.68754e-05
8.69561e-05
8.71246e-05
8.7343e-05
8.76775e-05
8.57091e-05
8.61125e-05
8.64747e-05
8.68197e-05
8.71276e-05
8.73517e-05
8.75839e-05
8.77637e-05
8.802e-05
8.81592e-05
8.84879e-05
8.63668e-05
8.65606e-05
8.64851e-05
8.63658e-05
8.63388e-05
8.63631e-05
8.6428e-05
8.65459e-05
8.66477e-05
8.68181e-05
8.69832e-05
8.71411e-05
8.7269e-05
8.73395e-05
8.568e-05
8.6175e-05
8.63614e-05
8.63548e-05
8.62916e-05
8.62862e-05
8.64146e-05
8.65699e-05
8.67764e-05
8.70336e-05
8.75187e-05
8.57309e-05
8.59672e-05
8.61053e-05
8.62027e-05
8.62559e-05
8.63997e-05
8.65482e-05
8.66793e-05
8.67786e-05
8.68752e-05
8.69656e-05
8.71164e-05
8.73284e-05
8.76521e-05
8.57232e-05
8.61504e-05
8.65264e-05
8.68016e-05
8.7072e-05
8.73076e-05
8.75583e-05
8.77508e-05
8.80054e-05
8.8148e-05
8.84441e-05
8.63464e-05
8.65355e-05
8.64674e-05
8.63342e-05
8.62802e-05
8.63235e-05
8.64166e-05
8.65321e-05
8.66191e-05
8.67684e-05
8.69577e-05
8.7154e-05
8.72666e-05
8.73102e-05
8.56865e-05
8.62028e-05
8.63746e-05
8.63761e-05
8.62889e-05
8.62974e-05
8.64241e-05
8.65373e-05
8.67229e-05
8.7011e-05
8.74937e-05
8.57913e-05
8.60543e-05
8.61794e-05
8.62561e-05
8.62873e-05
8.64075e-05
8.65865e-05
8.67162e-05
8.67311e-05
8.67505e-05
8.687e-05
8.70563e-05
8.72702e-05
8.75895e-05
8.57611e-05
8.6183e-05
8.65276e-05
8.67852e-05
8.70525e-05
8.72691e-05
8.75189e-05
8.77746e-05
8.80559e-05
8.81344e-05
8.83801e-05
8.6419e-05
8.65821e-05
8.64847e-05
8.635e-05
8.62957e-05
8.632e-05
8.63409e-05
8.64403e-05
8.6582e-05
8.68161e-05
8.70318e-05
8.71531e-05
8.72316e-05
8.73002e-05
8.57632e-05
8.63291e-05
8.65388e-05
8.64926e-05
8.63204e-05
8.62887e-05
8.63774e-05
8.65115e-05
8.67225e-05
8.70017e-05
8.73873e-05
8.56594e-05
8.59718e-05
8.61298e-05
8.62685e-05
8.62923e-05
8.64097e-05
8.65803e-05
8.6701e-05
8.6698e-05
8.67405e-05
8.68395e-05
8.70686e-05
8.73047e-05
8.76121e-05
8.57865e-05
8.6216e-05
8.65541e-05
8.68107e-05
8.70697e-05
8.72837e-05
8.74949e-05
8.76844e-05
8.79392e-05
8.81002e-05
8.84608e-05
8.6292e-05
8.65202e-05
8.64822e-05
8.63636e-05
8.63479e-05
8.64384e-05
8.65016e-05
8.65728e-05
8.66561e-05
8.68273e-05
8.69582e-05
8.70812e-05
8.72121e-05
8.7338e-05
8.57406e-05
8.62031e-05
8.63666e-05
8.63846e-05
8.62263e-05
8.62394e-05
8.63408e-05
8.64811e-05
8.66759e-05
8.69363e-05
8.7373e-05
8.57653e-05
8.60936e-05
8.62672e-05
8.63843e-05
8.63454e-05
8.64756e-05
8.66154e-05
8.67178e-05
8.67129e-05
8.67475e-05
8.67523e-05
8.69016e-05
8.71022e-05
8.7491e-05
8.57737e-05
8.62619e-05
8.66055e-05
8.68456e-05
8.70783e-05
8.73297e-05
8.76128e-05
8.78543e-05
8.80769e-05
8.82726e-05
8.84256e-05
8.62748e-05
8.64968e-05
8.64894e-05
8.64005e-05
8.63082e-05
8.62597e-05
8.62851e-05
8.64111e-05
8.65618e-05
8.67657e-05
8.69216e-05
8.70461e-05
8.71449e-05
8.73106e-05
8.58509e-05
8.63827e-05
8.65823e-05
8.65811e-05
8.62924e-05
8.62973e-05
8.63921e-05
8.6474e-05
8.66018e-05
8.68245e-05
8.72425e-05
8.56472e-05
8.59806e-05
8.61544e-05
8.63203e-05
8.62699e-05
8.64745e-05
8.6646e-05
8.67702e-05
8.67635e-05
8.68459e-05
8.67931e-05
8.69749e-05
8.71762e-05
8.75488e-05
8.59038e-05
8.63371e-05
8.66305e-05
8.68849e-05
8.71161e-05
8.72784e-05
8.74555e-05
8.76556e-05
8.79434e-05
8.81144e-05
8.84171e-05
8.61925e-05
8.64124e-05
8.64446e-05
8.63803e-05
8.63939e-05
8.63934e-05
8.64377e-05
8.65175e-05
8.66265e-05
8.68097e-05
8.69387e-05
8.70239e-05
8.70535e-05
8.72007e-05
8.57979e-05
8.62606e-05
8.64664e-05
8.65229e-05
8.6078e-05
8.6151e-05
8.62909e-05
8.64226e-05
8.66016e-05
8.68374e-05
8.72764e-05
8.58376e-05
8.61341e-05
8.63112e-05
8.65342e-05
8.63669e-05
8.65769e-05
8.67028e-05
8.68356e-05
8.67813e-05
8.68415e-05
8.65838e-05
8.6757e-05
8.69852e-05
8.73719e-05
8.58697e-05
8.63004e-05
8.66031e-05
8.68811e-05
8.71239e-05
8.73875e-05
8.76119e-05
8.78405e-05
8.8037e-05
8.82286e-05
8.84937e-05
8.62686e-05
8.64958e-05
8.64394e-05
8.63029e-05
8.62048e-05
8.6217e-05
8.63027e-05
8.64329e-05
8.65709e-05
8.67069e-05
8.68334e-05
8.69459e-05
8.70247e-05
8.71727e-05
8.6084e-05
8.64921e-05
8.67313e-05
8.68216e-05
8.60794e-05
8.62312e-05
8.63656e-05
8.64877e-05
8.66477e-05
8.6818e-05
8.71021e-05
8.58312e-05
8.60901e-05
8.62763e-05
8.65691e-05
8.62135e-05
8.64894e-05
8.66498e-05
8.68373e-05
8.67655e-05
8.69724e-05
8.64862e-05
8.67214e-05
8.69174e-05
8.72786e-05
8.61003e-05
8.64811e-05
8.67503e-05
8.6925e-05
8.70607e-05
8.72142e-05
8.74857e-05
8.77541e-05
8.80439e-05
8.82622e-05
8.84745e-05
8.61486e-05
8.64647e-05
8.6545e-05
8.64641e-05
8.64048e-05
8.64118e-05
8.64432e-05
8.65154e-05
8.66407e-05
8.67706e-05
8.68685e-05
8.69597e-05
8.70089e-05
8.69744e-05
8.63202e-05
8.65348e-05
8.67168e-05
8.70266e-05
8.58157e-05
8.60896e-05
8.62332e-05
8.63502e-05
8.65159e-05
8.66752e-05
8.67921e-05
8.60593e-05
8.61865e-05
8.63484e-05
8.65757e-05
8.63892e-05
8.66348e-05
8.68016e-05
8.69737e-05
8.67805e-05
8.71123e-05
8.62019e-05
8.66114e-05
8.68684e-05
8.7035e-05
8.6314e-05
8.64679e-05
8.66881e-05
8.6922e-05
8.71655e-05
8.73802e-05
8.76423e-05
8.78857e-05
8.80966e-05
8.83063e-05
8.85475e-05
8.61879e-05
8.65821e-05
8.66387e-05
8.646e-05
8.63222e-05
8.62772e-05
8.63128e-05
8.63908e-05
8.6523e-05
8.66874e-05
8.67942e-05
8.68882e-05
8.69224e-05
8.683e-05
8.64762e-05
8.66334e-05
8.68398e-05
8.72482e-05
8.57266e-05
8.61042e-05
8.62728e-05
8.64067e-05
8.65559e-05
8.66738e-05
8.66928e-05
8.62463e-05
8.62757e-05
8.64125e-05
8.65675e-05
8.65031e-05
8.66437e-05
8.68048e-05
8.70187e-05
8.6826e-05
8.72976e-05
8.61633e-05
8.65618e-05
8.67914e-05
8.68624e-05
8.65261e-05
8.66064e-05
8.67733e-05
8.69893e-05
8.7216e-05
8.74018e-05
8.76357e-05
8.78545e-05
8.80537e-05
8.82354e-05
8.84453e-05
8.59017e-05
8.65188e-05
8.66242e-05
8.63807e-05
8.62033e-05
8.61703e-05
8.62065e-05
8.63337e-05
8.65064e-05
8.66941e-05
8.68114e-05
8.68883e-05
8.69149e-05
8.68746e-05
8.67106e-05
8.68117e-05
8.69812e-05
8.74125e-05
8.56897e-05
8.60828e-05
8.62545e-05
8.6381e-05
8.65208e-05
8.66149e-05
8.66e-05
8.63604e-05
8.63658e-05
8.64396e-05
8.65367e-05
8.65175e-05
8.66732e-05
8.68928e-05
8.71567e-05
8.68629e-05
8.73167e-05
8.60286e-05
8.64681e-05
8.67291e-05
8.68093e-05
8.66306e-05
8.66746e-05
8.67753e-05
8.69691e-05
8.71254e-05
8.73135e-05
8.7534e-05
8.78122e-05
8.80074e-05
8.82585e-05
8.82522e-05
8.65625e-05
8.70643e-05
8.68699e-05
8.6399e-05
8.61674e-05
8.60809e-05
8.61058e-05
8.6278e-05
8.65348e-05
8.6727e-05
8.67868e-05
8.68476e-05
8.68893e-05
8.68403e-05
8.68149e-05
8.6953e-05
8.71276e-05
8.7368e-05
8.5628e-05
8.60032e-05
8.62003e-05
8.63253e-05
8.64327e-05
8.65119e-05
8.65206e-05
8.64166e-05
8.64884e-05
8.66206e-05
8.67193e-05
8.67195e-05
8.66892e-05
8.67761e-05
8.69942e-05
8.67053e-05
8.7081e-05
8.58801e-05
8.63902e-05
8.6707e-05
8.67975e-05
8.66695e-05
8.6611e-05
8.67481e-05
8.70034e-05
8.72215e-05
8.74117e-05
8.76451e-05
8.78351e-05
8.81113e-05
8.81865e-05
8.84065e-05
8.52184e-05
8.75663e-05
8.74637e-05
8.67194e-05
8.63253e-05
8.62061e-05
8.61531e-05
8.62041e-05
8.6368e-05
8.65166e-05
8.66234e-05
8.67027e-05
8.67678e-05
8.67399e-05
8.67475e-05
8.68909e-05
8.71831e-05
8.74328e-05
8.59382e-05
8.63199e-05
8.63238e-05
8.63162e-05
8.64194e-05
8.64879e-05
8.6467e-05
8.6388e-05
8.64375e-05
8.65557e-05
8.66809e-05
8.67576e-05
8.6811e-05
8.69473e-05
8.70053e-05
8.65865e-05
8.68513e-05
8.58763e-05
8.63397e-05
8.66753e-05
8.68023e-05
8.6824e-05
8.66043e-05
8.66799e-05
8.7047e-05
8.72227e-05
8.74613e-05
8.77836e-05
8.80003e-05
8.80864e-05
8.82872e-05
8.69112e-05
8.66247e-05
8.6697e-05
8.6728e-05
8.64345e-05
8.61622e-05
8.59387e-05
8.58779e-05
8.60988e-05
8.63984e-05
8.65641e-05
8.66207e-05
8.66707e-05
8.67253e-05
8.67513e-05
8.68271e-05
8.70362e-05
8.72704e-05
8.73835e-05
8.58174e-05
8.61871e-05
8.63543e-05
8.64257e-05
8.6427e-05
8.64648e-05
8.65293e-05
8.65466e-05
8.65545e-05
8.65644e-05
8.65458e-05
8.66492e-05
8.66576e-05
8.67614e-05
8.70152e-05
8.66879e-05
8.70365e-05
8.57883e-05
8.63068e-05
8.65832e-05
8.67533e-05
8.68086e-05
8.68808e-05
8.70451e-05
8.72072e-05
8.73422e-05
8.74868e-05
8.76848e-05
8.77519e-05
8.79585e-05
8.79448e-05
8.83384e-05
8.59928e-05
8.68266e-05
8.67446e-05
8.63941e-05
8.61277e-05
8.60084e-05
8.60003e-05
8.60859e-05
8.62761e-05
8.65134e-05
8.67298e-05
8.68579e-05
8.68723e-05
8.68722e-05
8.69457e-05
8.71177e-05
8.73392e-05
8.75709e-05
8.55688e-05
8.60031e-05
8.61066e-05
8.6133e-05
8.62579e-05
8.63699e-05
8.64424e-05
8.65085e-05
8.65768e-05
8.66453e-05
8.66977e-05
8.67829e-05
8.69138e-05
8.71467e-05
8.73129e-05
8.69142e-05
8.72295e-05
8.57715e-05
8.6275e-05
8.64787e-05
8.65798e-05
8.66571e-05
8.66956e-05
8.67819e-05
8.699e-05
8.72182e-05
8.74512e-05
8.76788e-05
8.79165e-05
8.80721e-05
8.83641e-05
8.81562e-05
8.63234e-05
8.67045e-05
8.65755e-05
8.6304e-05
8.60587e-05
8.58769e-05
8.58134e-05
8.588e-05
8.6024e-05
8.62942e-05
8.64774e-05
8.65353e-05
8.66088e-05
8.67432e-05
8.6879e-05
8.71049e-05
8.73586e-05
8.76802e-05
8.55687e-05
8.59542e-05
8.62602e-05
8.64974e-05
8.66242e-05
8.66628e-05
8.6678e-05
8.66801e-05
8.66542e-05
8.65896e-05
8.65291e-05
8.65393e-05
8.66444e-05
8.68071e-05
8.70066e-05
8.66957e-05
8.71409e-05
8.57289e-05
8.62612e-05
8.65945e-05
8.67961e-05
8.69038e-05
8.69948e-05
8.71432e-05
8.73127e-05
8.74292e-05
8.75129e-05
8.76438e-05
8.77362e-05
8.79653e-05
8.81295e-05
8.83945e-05
8.65546e-05
8.65078e-05
8.62186e-05
8.60031e-05
8.5833e-05
8.5725e-05
8.57079e-05
8.57972e-05
8.60433e-05
8.63923e-05
8.67148e-05
8.69502e-05
8.70843e-05
8.71699e-05
8.72431e-05
8.73866e-05
8.75314e-05
8.77028e-05
8.53666e-05
8.56867e-05
8.58963e-05
8.59985e-05
8.6088e-05
8.62199e-05
8.63777e-05
8.6499e-05
8.65838e-05
8.66499e-05
8.67093e-05
8.67875e-05
8.69405e-05
8.71717e-05
8.74366e-05
8.71384e-05
8.74636e-05
8.57493e-05
8.62013e-05
8.64911e-05
8.66565e-05
8.6793e-05
8.68759e-05
8.68613e-05
8.69698e-05
8.71647e-05
8.73454e-05
8.75835e-05
8.7789e-05
8.81094e-05
8.83419e-05
8.87239e-05
8.56921e-05
8.60256e-05
8.61926e-05
8.62209e-05
8.61071e-05
8.5931e-05
8.57336e-05
8.56273e-05
8.58404e-05
8.62839e-05
8.6552e-05
8.65776e-05
8.65468e-05
8.65829e-05
8.67168e-05
8.6943e-05
8.71737e-05
8.75179e-05
8.54095e-05
8.5808e-05
8.61134e-05
8.63748e-05
8.65721e-05
8.67162e-05
8.68165e-05
8.6833e-05
8.67587e-05
8.66552e-05
8.65245e-05
8.6561e-05
8.67341e-05
8.68917e-05
8.71245e-05
8.68189e-05
8.72693e-05
8.57876e-05
8.62897e-05
8.66614e-05
8.69228e-05
8.7072e-05
8.71032e-05
8.70782e-05
8.72186e-05
8.74633e-05
8.77062e-05
8.7942e-05
8.81022e-05
8.82356e-05
8.83231e-05
8.83612e-05
8.64793e-05
8.63719e-05
8.58623e-05
8.54832e-05
8.5321e-05
8.518e-05
8.51802e-05
8.51828e-05
8.55652e-05
8.61899e-05
8.66282e-05
8.68161e-05
8.68971e-05
8.69721e-05
8.70753e-05
8.72319e-05
8.73833e-05
8.76173e-05
8.53326e-05
8.567e-05
8.59549e-05
8.61728e-05
8.63599e-05
8.65313e-05
8.6624e-05
8.66834e-05
8.67185e-05
8.67057e-05
8.66352e-05
8.67348e-05
8.68784e-05
8.70219e-05
8.72368e-05
8.70033e-05
8.75974e-05
8.6241e-05
8.67212e-05
8.69615e-05
8.71009e-05
8.71749e-05
8.71865e-05
8.69471e-05
8.68825e-05
8.68854e-05
8.69914e-05
8.72522e-05
8.74922e-05
8.7805e-05
8.8077e-05
8.85261e-05
8.54652e-05
8.55684e-05
8.55612e-05
8.56092e-05
8.54133e-05
8.53111e-05
8.50708e-05
8.5595e-05
8.59913e-05
8.67233e-05
8.70533e-05
8.70437e-05
8.69391e-05
8.68114e-05
8.6845e-05
8.69793e-05
8.71686e-05
8.75377e-05
8.54975e-05
8.5921e-05
8.62675e-05
8.65336e-05
8.66961e-05
8.6773e-05
8.68964e-05
8.70899e-05
8.72469e-05
8.71469e-05
8.66303e-05
8.66374e-05
8.66738e-05
8.68063e-05
8.69796e-05
8.66996e-05
8.70781e-05
8.58604e-05
8.63506e-05
8.66672e-05
8.69404e-05
8.72081e-05
8.7386e-05
8.66467e-05
8.66178e-05
8.6763e-05
8.70276e-05
8.74118e-05
8.77295e-05
8.79766e-05
8.81065e-05
8.81775e-05
8.61721e-05
8.61892e-05
8.58935e-05
8.56412e-05
8.54514e-05
8.53264e-05
8.54087e-05
8.58361e-05
8.54097e-05
8.62568e-05
8.68231e-05
8.71549e-05
8.72153e-05
8.66921e-05
8.66548e-05
8.68851e-05
8.72337e-05
8.77052e-05
8.59948e-05
8.62618e-05
8.64029e-05
8.65212e-05
8.66818e-05
8.68215e-05
8.68826e-05
8.69192e-05
8.69976e-05
8.68812e-05
8.57037e-05
8.61347e-05
8.63976e-05
8.66347e-05
8.67111e-05
8.65288e-05
8.65203e-05
8.63703e-05
8.67622e-05
8.71165e-05
8.73543e-05
8.75829e-05
8.80136e-05
8.61601e-05
8.65182e-05
8.67739e-05
8.69956e-05
8.72655e-05
8.75034e-05
8.77994e-05
8.79858e-05
8.83433e-05
8.5822e-05
8.5944e-05
8.59134e-05
8.57744e-05
8.55806e-05
8.54873e-05
8.56017e-05
8.58025e-05
8.60034e-05
8.65842e-05
8.70158e-05
8.72173e-05
8.75866e-05
8.596e-05
8.62746e-05
8.64146e-05
8.6518e-05
8.64622e-05
8.59714e-05
8.61241e-05
8.64195e-05
8.67104e-05
8.69105e-05
8.69548e-05
8.69111e-05
8.69655e-05
8.74768e-05
8.60245e-05
8.60489e-05
8.61429e-05
8.62899e-05
8.65022e-05
8.66552e-05
8.66587e-05
8.66172e-05
8.65888e-05
8.67541e-05
8.70208e-05
8.72922e-05
8.75728e-05
8.80518e-05
8.60692e-05
8.65201e-05
8.6774e-05
8.69236e-05
8.71015e-05
8.73687e-05
8.77098e-05
8.79833e-05
8.81346e-05
8.63223e-05
8.65225e-05
8.65374e-05
8.64903e-05
8.64739e-05
8.64872e-05
8.6521e-05
8.66206e-05
8.67672e-05
8.69567e-05
8.71353e-05
8.73251e-05
8.73987e-05
8.72397e-05
8.57485e-05
8.60816e-05
8.62189e-05
8.62756e-05
8.62829e-05
8.62958e-05
8.6397e-05
8.65886e-05
8.68441e-05
8.71373e-05
8.75247e-05
8.57483e-05
8.60244e-05
8.61893e-05
8.62814e-05
8.63329e-05
8.64279e-05
8.6519e-05
8.66091e-05
8.67108e-05
8.68396e-05
8.69853e-05
8.71526e-05
8.7348e-05
8.76623e-05
8.57523e-05
8.61764e-05
8.65502e-05
8.68865e-05
8.71889e-05
8.74301e-05
8.76358e-05
8.77926e-05
8.80093e-05
8.8211e-05
8.84548e-05
8.63093e-05
8.65186e-05
8.65322e-05
8.64825e-05
8.64715e-05
8.64821e-05
8.65075e-05
8.65986e-05
8.67434e-05
8.69406e-05
8.71311e-05
8.73269e-05
8.73918e-05
8.72189e-05
8.57211e-05
8.60626e-05
8.62106e-05
8.62786e-05
8.62909e-05
8.63093e-05
8.64123e-05
8.66027e-05
8.68576e-05
8.71509e-05
8.7538e-05
8.5751e-05
8.60252e-05
8.61872e-05
8.62842e-05
8.63409e-05
8.64402e-05
8.65379e-05
8.6621e-05
8.67129e-05
8.68382e-05
8.69867e-05
8.71718e-05
8.73774e-05
8.76874e-05
8.57628e-05
8.61843e-05
8.65515e-05
8.68857e-05
8.71871e-05
8.74278e-05
8.76305e-05
8.77769e-05
8.79801e-05
8.81802e-05
8.84322e-05
8.63262e-05
8.65356e-05
8.65523e-05
8.64938e-05
8.64811e-05
8.65064e-05
8.65506e-05
8.666e-05
8.68093e-05
8.69929e-05
8.71493e-05
8.73375e-05
8.74287e-05
8.72546e-05
8.57452e-05
8.60729e-05
8.62206e-05
8.63024e-05
8.63098e-05
8.63253e-05
8.64214e-05
8.662e-05
8.68888e-05
8.71745e-05
8.75485e-05
8.57449e-05
8.60342e-05
8.62166e-05
8.63151e-05
8.63582e-05
8.6461e-05
8.65655e-05
8.66471e-05
8.67507e-05
8.68675e-05
8.69962e-05
8.71554e-05
8.73408e-05
8.76542e-05
8.57473e-05
8.62089e-05
8.65936e-05
8.69308e-05
8.72222e-05
8.74563e-05
8.76522e-05
8.78047e-05
8.80279e-05
8.82333e-05
8.84757e-05
8.62848e-05
8.65274e-05
8.65519e-05
8.64763e-05
8.64549e-05
8.64676e-05
8.65045e-05
8.66184e-05
8.67723e-05
8.69582e-05
8.71422e-05
8.73349e-05
8.74294e-05
8.72521e-05
8.57321e-05
8.607e-05
8.62349e-05
8.6322e-05
8.6329e-05
8.63345e-05
8.64266e-05
8.66241e-05
8.68874e-05
8.71625e-05
8.75498e-05
8.57258e-05
8.60187e-05
8.61888e-05
8.62979e-05
8.63397e-05
8.64509e-05
8.6557e-05
8.66403e-05
8.67411e-05
8.68625e-05
8.70003e-05
8.71763e-05
8.73843e-05
8.77149e-05
8.57892e-05
8.62297e-05
8.66042e-05
8.69459e-05
8.72285e-05
8.74364e-05
8.76265e-05
8.77713e-05
8.79895e-05
8.81862e-05
8.84219e-05
8.62592e-05
8.65245e-05
8.65494e-05
8.64642e-05
8.64452e-05
8.64794e-05
8.65303e-05
8.66513e-05
8.68091e-05
8.69945e-05
8.71447e-05
8.73211e-05
8.74146e-05
8.72253e-05
8.5685e-05
8.60133e-05
8.61797e-05
8.62755e-05
8.63089e-05
8.63194e-05
8.64153e-05
8.66272e-05
8.68921e-05
8.717e-05
8.75842e-05
8.57612e-05
8.60613e-05
8.62308e-05
8.63165e-05
8.63641e-05
8.64533e-05
8.65335e-05
8.66354e-05
8.67391e-05
8.68516e-05
8.69847e-05
8.71568e-05
8.73655e-05
8.76899e-05
8.57324e-05
8.61931e-05
8.65813e-05
8.6937e-05
8.72293e-05
8.74551e-05
8.76441e-05
8.7785e-05
8.80036e-05
8.8193e-05
8.84294e-05
8.62405e-05
8.65468e-05
8.65522e-05
8.64248e-05
8.63773e-05
8.63878e-05
8.64491e-05
8.65991e-05
8.67797e-05
8.69541e-05
8.71127e-05
8.73021e-05
8.74235e-05
8.72388e-05
8.57356e-05
8.60906e-05
8.62748e-05
8.63472e-05
8.63377e-05
8.63335e-05
8.6429e-05
8.6613e-05
8.68775e-05
8.71612e-05
8.75845e-05
8.5738e-05
8.60487e-05
8.62173e-05
8.62957e-05
8.63013e-05
8.63922e-05
8.64831e-05
8.65888e-05
8.67093e-05
8.68518e-05
8.69919e-05
8.71618e-05
8.73796e-05
8.77218e-05
8.57692e-05
8.62216e-05
8.66182e-05
8.69498e-05
8.72079e-05
8.73868e-05
8.75678e-05
8.7739e-05
8.80011e-05
8.81989e-05
8.83947e-05
8.62094e-05
8.66051e-05
8.6607e-05
8.64665e-05
8.64184e-05
8.64467e-05
8.65012e-05
8.66297e-05
8.67986e-05
8.69586e-05
8.71126e-05
8.73005e-05
8.74166e-05
8.72026e-05
8.56821e-05
8.60427e-05
8.62416e-05
8.63139e-05
8.63152e-05
8.63126e-05
8.63926e-05
8.65825e-05
8.68455e-05
8.71414e-05
8.75916e-05
8.57547e-05
8.60753e-05
8.62536e-05
8.63239e-05
8.63671e-05
8.6447e-05
8.65127e-05
8.66096e-05
8.66991e-05
8.67966e-05
8.69229e-05
8.71233e-05
8.73688e-05
8.77196e-05
8.57326e-05
8.6169e-05
8.65705e-05
8.69217e-05
8.72033e-05
8.74339e-05
8.76419e-05
8.77971e-05
8.80266e-05
8.82021e-05
8.83566e-05
8.61943e-05
8.66903e-05
8.66519e-05
8.64178e-05
8.63721e-05
8.63922e-05
8.64606e-05
8.66104e-05
8.67908e-05
8.69595e-05
8.71035e-05
8.72845e-05
8.74008e-05
8.71801e-05
8.5686e-05
8.60852e-05
8.62976e-05
8.6371e-05
8.63335e-05
8.63407e-05
8.64467e-05
8.66297e-05
8.68627e-05
8.71339e-05
8.75488e-05
8.57016e-05
8.60357e-05
8.62138e-05
8.62891e-05
8.6321e-05
8.6391e-05
8.64878e-05
8.65982e-05
8.67154e-05
8.68564e-05
8.70025e-05
8.7176e-05
8.74137e-05
8.77556e-05
8.5764e-05
8.61715e-05
8.65763e-05
8.69107e-05
8.71842e-05
8.74042e-05
8.7614e-05
8.77798e-05
8.80286e-05
8.81891e-05
8.82637e-05
8.61314e-05
8.67212e-05
8.6688e-05
8.64223e-05
8.63246e-05
8.63374e-05
8.64271e-05
8.65844e-05
8.67767e-05
8.69405e-05
8.71057e-05
8.72961e-05
8.74278e-05
8.71714e-05
8.57274e-05
8.61442e-05
8.63665e-05
8.64227e-05
8.63608e-05
8.63534e-05
8.64275e-05
8.659e-05
8.68291e-05
8.71382e-05
8.75291e-05
8.57247e-05
8.60633e-05
8.62327e-05
8.63096e-05
8.63329e-05
8.63953e-05
8.6492e-05
8.66104e-05
8.67018e-05
8.68047e-05
8.69361e-05
8.71469e-05
8.74282e-05
8.77676e-05
8.58152e-05
8.62202e-05
8.65976e-05
8.69516e-05
8.71931e-05
8.74013e-05
8.76096e-05
8.77825e-05
8.80334e-05
8.81974e-05
8.81914e-05
8.6391e-05
8.69414e-05
8.68086e-05
8.64661e-05
8.63716e-05
8.63823e-05
8.64641e-05
8.65979e-05
8.6783e-05
8.69235e-05
8.70711e-05
8.72504e-05
8.74286e-05
8.71154e-05
8.57402e-05
8.6213e-05
8.64182e-05
8.64388e-05
8.63657e-05
8.63629e-05
8.64287e-05
8.65937e-05
8.68114e-05
8.71153e-05
8.74374e-05
8.57071e-05
8.60833e-05
8.62591e-05
8.63586e-05
8.639e-05
8.64351e-05
8.65238e-05
8.66491e-05
8.67442e-05
8.687e-05
8.69722e-05
8.71197e-05
8.74187e-05
8.7735e-05
8.57611e-05
8.6156e-05
8.65838e-05
8.69321e-05
8.7219e-05
8.74636e-05
8.77038e-05
8.78481e-05
8.81771e-05
8.81806e-05
8.81499e-05
8.58965e-05
8.70088e-05
8.69769e-05
8.654e-05
8.63884e-05
8.63835e-05
8.64421e-05
8.6535e-05
8.67054e-05
8.6871e-05
8.70253e-05
8.71951e-05
8.73921e-05
8.69958e-05
8.57466e-05
8.62506e-05
8.64895e-05
8.65426e-05
8.64261e-05
8.64356e-05
8.64987e-05
8.66257e-05
8.6851e-05
8.71766e-05
8.73752e-05
8.58145e-05
8.61568e-05
8.62825e-05
8.63182e-05
8.6329e-05
8.64153e-05
8.65251e-05
8.66369e-05
8.67123e-05
8.68083e-05
8.69089e-05
8.71273e-05
8.74808e-05
8.77668e-05
8.59206e-05
8.62236e-05
8.66109e-05
8.69544e-05
8.72516e-05
8.74948e-05
8.77117e-05
8.78096e-05
8.81335e-05
8.83042e-05
8.7698e-05
8.62889e-05
8.66816e-05
8.67271e-05
8.64594e-05
8.63546e-05
8.63593e-05
8.6441e-05
8.65701e-05
8.67311e-05
8.68963e-05
8.70918e-05
8.7257e-05
8.74027e-05
8.70383e-05
8.58261e-05
8.62705e-05
8.64454e-05
8.64535e-05
8.63496e-05
8.63757e-05
8.64867e-05
8.66107e-05
8.6828e-05
8.7126e-05
8.73618e-05
8.58461e-05
8.61659e-05
8.63342e-05
8.63985e-05
8.63659e-05
8.64074e-05
8.65423e-05
8.66904e-05
8.67733e-05
8.68608e-05
8.68738e-05
8.7041e-05
8.7341e-05
8.76495e-05
8.58254e-05
8.62603e-05
8.66531e-05
8.69818e-05
8.72514e-05
8.74735e-05
8.7707e-05
8.78567e-05
8.8166e-05
8.80993e-05
8.80773e-05
8.62021e-05
8.68345e-05
8.67913e-05
8.65286e-05
8.64116e-05
8.63908e-05
8.64444e-05
8.6549e-05
8.67133e-05
8.6886e-05
8.70899e-05
8.72566e-05
8.74093e-05
8.71056e-05
8.5867e-05
8.63536e-05
8.65405e-05
8.65427e-05
8.63377e-05
8.63684e-05
8.64433e-05
8.65572e-05
8.68011e-05
8.71095e-05
8.73966e-05
8.57482e-05
8.61569e-05
8.63498e-05
8.64209e-05
8.63568e-05
8.64628e-05
8.66145e-05
8.67606e-05
8.68437e-05
8.69291e-05
8.68746e-05
8.70532e-05
8.73596e-05
8.77025e-05
8.58504e-05
8.62881e-05
8.66554e-05
8.6975e-05
8.72381e-05
8.74675e-05
8.77047e-05
8.78774e-05
8.81048e-05
8.83338e-05
8.81749e-05
8.62248e-05
8.67929e-05
8.67714e-05
8.65552e-05
8.64417e-05
8.63974e-05
8.64177e-05
8.65076e-05
8.6669e-05
8.68552e-05
8.70126e-05
8.71313e-05
8.73313e-05
8.71554e-05
8.58638e-05
8.63638e-05
8.65875e-05
8.65869e-05
8.63129e-05
8.63539e-05
8.64707e-05
8.66101e-05
8.68418e-05
8.71227e-05
8.74623e-05
8.57414e-05
8.6156e-05
8.63771e-05
8.64902e-05
8.63602e-05
8.64949e-05
8.66355e-05
8.67924e-05
8.68658e-05
8.69468e-05
8.67947e-05
8.6978e-05
8.72692e-05
8.76401e-05
8.5878e-05
8.63656e-05
8.67657e-05
8.70876e-05
8.73119e-05
8.75059e-05
8.77197e-05
8.78639e-05
8.81041e-05
8.82063e-05
8.82449e-05
8.63527e-05
8.6727e-05
8.66611e-05
8.64856e-05
8.63959e-05
8.63764e-05
8.64232e-05
8.65261e-05
8.66939e-05
8.68604e-05
8.70405e-05
8.71854e-05
8.73692e-05
8.73413e-05
8.60081e-05
8.64831e-05
8.66834e-05
8.66988e-05
8.62384e-05
8.63096e-05
8.64121e-05
8.65355e-05
8.67591e-05
8.70128e-05
8.73114e-05
8.57247e-05
8.61328e-05
8.63795e-05
8.65308e-05
8.6279e-05
8.65247e-05
8.6759e-05
8.69704e-05
8.70537e-05
8.71212e-05
8.67376e-05
8.69117e-05
8.71962e-05
8.7568e-05
8.5895e-05
8.63481e-05
8.6685e-05
8.69388e-05
8.71753e-05
8.73997e-05
8.76754e-05
8.78574e-05
8.80909e-05
8.83058e-05
8.84808e-05
8.61607e-05
8.65843e-05
8.66762e-05
8.65841e-05
8.64992e-05
8.64578e-05
8.64543e-05
8.65092e-05
8.66363e-05
8.68323e-05
8.69775e-05
8.70475e-05
8.71605e-05
8.7183e-05
8.60731e-05
8.64394e-05
8.66712e-05
8.67555e-05
8.60405e-05
8.61738e-05
8.63245e-05
8.65375e-05
8.68299e-05
8.71021e-05
8.73782e-05
8.59765e-05
8.6248e-05
8.64695e-05
8.66804e-05
8.61947e-05
8.65395e-05
8.67093e-05
8.68747e-05
8.69474e-05
8.70815e-05
8.64527e-05
8.67648e-05
8.7053e-05
8.74045e-05
8.60921e-05
8.64322e-05
8.6753e-05
8.70474e-05
8.73178e-05
8.75447e-05
8.78011e-05
8.79625e-05
8.81394e-05
8.83185e-05
8.85136e-05
8.64871e-05
8.66971e-05
8.65581e-05
8.64273e-05
8.63369e-05
8.62663e-05
8.62581e-05
8.63545e-05
8.65312e-05
8.66951e-05
8.68095e-05
8.69676e-05
8.71791e-05
8.72476e-05
8.6617e-05
8.67508e-05
8.69232e-05
8.71267e-05
8.58267e-05
8.61849e-05
8.63427e-05
8.64702e-05
8.66799e-05
8.68763e-05
8.68727e-05
8.59904e-05
8.6174e-05
8.64086e-05
8.65766e-05
8.63365e-05
8.65931e-05
8.6794e-05
8.69772e-05
8.70878e-05
8.74654e-05
8.63185e-05
8.67944e-05
8.70151e-05
8.7131e-05
8.63326e-05
8.65109e-05
8.67772e-05
8.69678e-05
8.71693e-05
8.74151e-05
8.7669e-05
8.77881e-05
8.79982e-05
8.81865e-05
8.85688e-05
8.60593e-05
8.63694e-05
8.64977e-05
8.65277e-05
8.65193e-05
8.6475e-05
8.64432e-05
8.6472e-05
8.65832e-05
8.67279e-05
8.68273e-05
8.69108e-05
8.70191e-05
8.69889e-05
8.66154e-05
8.66344e-05
8.68204e-05
8.7168e-05
8.5665e-05
8.60718e-05
8.62768e-05
8.64913e-05
8.66907e-05
8.67883e-05
8.6751e-05
8.62737e-05
8.63682e-05
8.65534e-05
8.66369e-05
8.64594e-05
8.66232e-05
8.68189e-05
8.70086e-05
8.70326e-05
8.74901e-05
8.60562e-05
8.65572e-05
8.67503e-05
8.68256e-05
8.64575e-05
8.6521e-05
8.66041e-05
8.68023e-05
8.71773e-05
8.75556e-05
8.78613e-05
8.80049e-05
8.81481e-05
8.83301e-05
8.84755e-05
8.64217e-05
8.66571e-05
8.65821e-05
8.64206e-05
8.62906e-05
8.61582e-05
8.61335e-05
8.62505e-05
8.64196e-05
8.65936e-05
8.67385e-05
8.68871e-05
8.70286e-05
8.70091e-05
8.67712e-05
8.67695e-05
8.69467e-05
8.73713e-05
8.57084e-05
8.60468e-05
8.61968e-05
8.63796e-05
8.65856e-05
8.66708e-05
8.65245e-05
8.62531e-05
8.63283e-05
8.64399e-05
8.64645e-05
8.64332e-05
8.66447e-05
8.67676e-05
8.68225e-05
8.69113e-05
8.75261e-05
8.60628e-05
8.66225e-05
8.68106e-05
8.68012e-05
8.65577e-05
8.66187e-05
8.67509e-05
8.69822e-05
8.72483e-05
8.74654e-05
8.76273e-05
8.77584e-05
8.8015e-05
8.81796e-05