/*--------------------------------*- C++ -*----------------------------------*\
| =========                 |                                                 |
| \\      /  F ield         | OpenFOAM: The Open Source CFD Toolbox           |
|  \\    /   O peration     | Version:  2.3.0                                 |
|   \\  /    A nd           | Web:      www.OpenFOAM.org                      |
|    \\/     M anipulation  |                                                 |
\*---------------------------------------------------------------------------*/
FoamFile
{
    version     2.0;
    format      ascii;
    class       volVectorField;
    location    "200";
    object      U;
}
// * * * * * * * * * * * * * * * * * * * * * * * * * * * * * * * * * * * * * //

dimensions      [0 1 -1 0 0 0 0];

internalField   nonuniform List<vector> 
90000
(
(0.00563607 6.70695e-06 -0.0002057)
(0.00564614 7.43458e-06 -0.00018464)
(0.00564924 8.53042e-06 -0.000159705)
(0.00564012 7.47955e-06 -0.000147642)
(0.00564466 5.00793e-06 -0.000156253)
(0.00564758 2.79337e-06 -0.000180044)
(0.00567063 -3.7329e-07 -0.000215073)
(0.00569946 -2.63699e-06 -0.000247945)
(0.00573534 -3.93884e-06 -0.000274714)
(0.00575927 -4.57422e-06 -0.000277497)
(0.00577212 -4.0403e-06 -0.000263432)
(0.00577177 -4.16517e-06 -0.000242609)
(0.00576874 -3.67232e-06 -0.000209301)
(0.00575282 -3.42998e-06 -0.000174528)
(0.00572986 -2.92355e-06 -0.000140689)
(0.00567938 -1.66075e-06 -0.00011673)
(0.00562042 -8.26327e-07 -0.000114773)
(0.00554713 7.61745e-07 -0.000118259)
(0.00547999 1.27685e-06 -0.000124093)
(0.00541136 1.50163e-06 -0.000118069)
(0.00535156 1.51814e-06 -0.000101186)
(0.00529296 7.25294e-07 -8.59436e-05)
(0.00525042 4.74891e-07 -7.79782e-05)
(0.00520421 2.33839e-07 -8.03775e-05)
(0.00517303 -2.64163e-07 -8.46619e-05)
(0.00514314 -7.04769e-07 -7.55435e-05)
(0.00512453 -1.44968e-06 -6.10565e-05)
(0.00510323 -2.41275e-06 -4.7808e-05)
(0.00509032 -2.91974e-06 -4.84125e-05)
(0.00507113 -2.68621e-06 -5.71716e-05)
(0.00506858 -1.33623e-06 -5.94217e-05)
(0.00507708 -6.02996e-07 -3.26827e-05)
(0.0050956 2.04669e-07 2.27632e-05)
(0.0051153 -9.864e-07 9.07585e-05)
(0.00514057 -1.81743e-06 0.000150666)
(0.00515322 -1.93051e-06 0.000162287)
(0.00518323 -1.73678e-06 0.00011999)
(0.00521688 -9.28563e-07 4.94417e-05)
(0.00524417 1.45723e-07 -4.27154e-05)
(0.00525947 2.57921e-06 -0.00014529)
(0.00529503 5.30363e-06 -0.000237837)
(0.00535027 7.40204e-06 -0.000248701)
(0.00542748 6.62514e-06 -0.000171194)
(0.00547735 6.26551e-06 -6.08698e-05)
(0.00549885 5.07339e-06 1.09374e-05)
(0.00550032 2.8856e-06 1.47564e-05)
(0.00551285 2.59317e-06 -3.99853e-05)
(0.00552948 1.44455e-06 -0.000113868)
(0.00557182 2.40511e-06 -0.0001712)
(0.00560803 4.44142e-06 -0.000201943)
(0.0171786 4.24208e-05 -0.000552392)
(0.0172407 4.37776e-05 -0.000508775)
(0.0173074 4.49596e-05 -0.000471978)
(0.0173528 3.67778e-05 -0.000459244)
(0.0174251 2.42393e-05 -0.000482605)
(0.0174759 1.24682e-05 -0.00052658)
(0.017554 -1.78284e-06 -0.000581349)
(0.0176104 -1.11331e-05 -0.000623954)
(0.0176687 -1.63455e-05 -0.000653417)
(0.0176824 -1.84647e-05 -0.000637627)
(0.0176781 -1.61923e-05 -0.000600658)
(0.0176412 -1.5876e-05 -0.000549507)
(0.017595 -1.3118e-05 -0.000479932)
(0.0175168 -1.08581e-05 -0.000414652)
(0.0174302 -7.84544e-06 -0.000353128)
(0.0172899 -2.65164e-06 -0.000312904)
(0.0171503 1.08033e-06 -0.000306576)
(0.0169795 6.30197e-06 -0.000303514)
(0.0168267 8.0244e-06 -0.000306444)
(0.016656 9.20272e-06 -0.000291311)
(0.0165086 9.64627e-06 -0.000268968)
(0.0163455 7.90368e-06 -0.000253606)
(0.0162133 7.73091e-06 -0.000248459)
(0.0160655 7.25134e-06 -0.000253203)
(0.015952 5.17345e-06 -0.000253)
(0.0158287 3.11366e-06 -0.000228292)
(0.0157359 3.26246e-07 -0.000201068)
(0.0156337 -2.4631e-06 -0.000175614)
(0.0155642 -2.7684e-06 -0.000169329)
(0.0154898 1.41935e-06 -0.00016707)
(0.0154687 8.76839e-06 -0.000148847)
(0.0154686 1.26564e-05 -8.57665e-05)
(0.0155034 1.5774e-05 8.72126e-07)
(0.0155453 1.27719e-05 8.26585e-05)
(0.015613 1.09499e-05 0.000126497)
(0.0156661 1.10044e-05 8.42885e-05)
(0.0157547 1.21637e-05 -3.0908e-05)
(0.0158404 1.67961e-05 -0.000177767)
(0.0159293 2.32499e-05 -0.000333786)
(0.0160054 3.40432e-05 -0.000469093)
(0.0161241 4.46674e-05 -0.000556852)
(0.0162596 5.32184e-05 -0.000515458)
(0.0164301 5.16362e-05 -0.000381153)
(0.016544 4.98616e-05 -0.000238135)
(0.0166452 4.24405e-05 -0.000181373)
(0.0167043 3.18649e-05 -0.000224811)
(0.0167911 2.81469e-05 -0.000340082)
(0.0168708 2.50843e-05 -0.000461313)
(0.0169909 2.80254e-05 -0.000539159)
(0.0170822 3.54415e-05 -0.00056698)
(0.0292861 0.000111397 -0.000914077)
(0.0294264 0.000110425 -0.000850748)
(0.029591 0.000107233 -0.000797396)
(0.0297142 8.44846e-05 -0.000768929)
(0.0298705 5.52489e-05 -0.000783423)
(0.0299779 2.83946e-05 -0.000819231)
(0.0301058 -1.03673e-06 -0.000869205)
(0.0301788 -1.93977e-05 -0.000903445)
(0.0302537 -2.94178e-05 -0.000929591)
(0.0302518 -3.30828e-05 -0.000903878)
(0.0302349 -2.83664e-05 -0.000858702)
(0.0301698 -2.65332e-05 -0.000797059)
(0.0300973 -2.02733e-05 -0.000710851)
(0.0299802 -1.52297e-05 -0.000630327)
(0.0298691 -9.05415e-06 -0.000548705)
(0.029685 6.75264e-07 -0.000488035)
(0.0295156 7.90422e-06 -0.000468713)
(0.0292989 1.72396e-05 -0.000451561)
(0.0291075 2.02213e-05 -0.000450207)
(0.0288678 2.28962e-05 -0.000432274)
(0.0286588 2.41993e-05 -0.000413478)
(0.0283946 2.18523e-05 -0.000405097)
(0.0281599 2.17268e-05 -0.000408664)
(0.0278834 2.12518e-05 -0.000421722)
(0.0276445 1.77133e-05 -0.000426146)
(0.027373 1.44339e-05 -0.000396734)
(0.0271455 1.00337e-05 -0.000365157)
(0.0269018 6.72439e-06 -0.000332029)
(0.0267181 9.54744e-06 -0.000320402)
(0.0265318 2.29495e-05 -0.000312509)
(0.0264419 4.17409e-05 -0.000290089)
(0.0263896 5.24035e-05 -0.000216972)
(0.0264048 5.97901e-05 -0.000125018)
(0.0264354 5.68297e-05 -4.69491e-05)
(0.0265244 5.61003e-05 -1.94721e-05)
(0.0266028 5.58788e-05 -9.18789e-05)
(0.0267301 5.6242e-05 -0.000240297)
(0.0268597 6.51629e-05 -0.000419096)
(0.0270077 7.99571e-05 -0.000599116)
(0.0271444 0.000102808 -0.000744893)
(0.027346 0.000123864 -0.000838861)
(0.0275686 0.000140577 -0.000792027)
(0.027849 0.000136672 -0.000655846)
(0.0280576 0.000130022 -0.000518769)
(0.0282759 0.000110761 -0.000482944)
(0.0284151 8.90701e-05 -0.000553859)
(0.0285931 8.24113e-05 -0.000700469)
(0.0287394 8.15788e-05 -0.000842402)
(0.0289416 8.7708e-05 -0.000925438)
(0.0290976 0.000101083 -0.000945544)
(0.0417229 0.000220824 -0.00133829)
(0.0419421 0.0002156 -0.00125137)
(0.0422138 0.000205634 -0.00117401)
(0.0424123 0.000163228 -0.00111549)
(0.0426489 0.000111921 -0.00110658)
(0.0428127 6.61535e-05 -0.00111663)
(0.0429907 1.65725e-05 -0.00114382)
(0.0430809 -1.53263e-05 -0.00115351)
(0.0431862 -3.29133e-05 -0.00116387)
(0.0431839 -4.06613e-05 -0.00112367)
(0.0431795 -3.56051e-05 -0.00107039)
(0.0431124 -3.28706e-05 -0.00100959)
(0.0430509 -2.34061e-05 -0.000916444)
(0.0429308 -1.56223e-05 -0.000831532)
(0.0428429 -5.34882e-06 -0.000739272)
(0.0426685 9.07985e-06 -0.000654512)
(0.0425297 1.92634e-05 -0.00061759)
(0.0423313 3.22271e-05 -0.000573929)
(0.0421766 3.54521e-05 -0.000555392)
(0.0419359 3.8382e-05 -0.000525172)
(0.0417322 4.07403e-05 -0.000501591)
(0.0414222 3.89871e-05 -0.000499727)
(0.0411167 4.00424e-05 -0.000514946)
(0.0407205 4.15635e-05 -0.000545835)
(0.0403394 3.80492e-05 -0.000571471)
(0.0398775 3.44075e-05 -0.000551352)
(0.0394488 2.80343e-05 -0.000525505)
(0.0389813 2.39254e-05 -0.000493457)
(0.0385968 3.10519e-05 -0.000483169)
(0.0382042 5.57141e-05 -0.000474553)
(0.037955 8.99709e-05 -0.000451593)
(0.0377734 0.000112884 -0.000368026)
(0.0377002 0.000128077 -0.000258621)
(0.0376535 0.000128684 -0.000165827)
(0.0377109 0.000134191 -0.000130949)
(0.0377772 0.000137357 -0.000215363)
(0.0379077 0.000137064 -0.000385267)
(0.0380576 0.000148553 -0.000589495)
(0.0382516 0.000168726 -0.00080105)
(0.0384432 0.000199422 -0.000970893)
(0.0387294 0.000227985 -0.00109053)
(0.0390557 0.000252404 -0.00105616)
(0.0394669 0.000244992 -0.000925571)
(0.0397985 0.000233137 -0.00080015)
(0.040161 0.000202994 -0.00078831)
(0.0404012 0.00017274 -0.0008924)
(0.0406929 0.000168586 -0.00108183)
(0.0409167 0.000175473 -0.00126039)
(0.0412117 0.00018654 -0.00136133)
(0.0414365 0.000207387 -0.00138343)
(0.0542254 0.000381987 -0.00184918)
(0.0545174 0.000373303 -0.00174427)
(0.0548993 0.000358245 -0.00165264)
(0.0551691 0.000294827 -0.00156391)
(0.0554703 0.000216965 -0.00153396)
(0.055674 0.000149336 -0.00152358)
(0.0558914 7.44059e-05 -0.0015171)
(0.0559791 2.15098e-05 -0.00148251)
(0.0561124 -9.88259e-06 -0.00145016)
(0.056107 -2.77548e-05 -0.00136431)
(0.0561266 -2.77806e-05 -0.00127276)
(0.0560705 -2.84263e-05 -0.001201)
(0.0560406 -1.93567e-05 -0.00109475)
(0.0559356 -1.18249e-05 -0.00100628)
(0.0558951 2.97781e-06 -0.000921581)
(0.0557589 2.3122e-05 -0.000820538)
(0.0556959 3.69479e-05 -0.000773458)
(0.0555648 5.29277e-05 -0.000695966)
(0.0555231 5.47524e-05 -0.000637266)
(0.0553779 5.4746e-05 -0.000573121)
(0.0552862 5.54168e-05 -0.000517028)
(0.0550634 5.47477e-05 -0.000505517)
(0.0548159 5.78832e-05 -0.000522893)
(0.0544142 6.39344e-05 -0.000565948)
(0.0539801 6.35642e-05 -0.000621152)
(0.0533792 6.23435e-05 -0.000625233)
(0.0527522 5.44053e-05 -0.00062074)
(0.0520088 4.68112e-05 -0.000604367)
(0.0513411 5.69486e-05 -0.000609682)
(0.0506365 9.23063e-05 -0.000610387)
(0.0500972 0.000140345 -0.000586156)
(0.0496626 0.00017881 -0.000487929)
(0.0493886 0.000205273 -0.000345632)
(0.0491537 0.000211047 -0.000218678)
(0.0490728 0.000229587 -0.000153524)
(0.0490523 0.000248621 -0.000236021)
(0.049126 0.000259011 -0.000426424)
(0.0492425 0.000277682 -0.000652752)
(0.0494418 0.000301085 -0.000899291)
(0.0496547 0.000330046 -0.00109167)
(0.0499912 0.000351343 -0.00122904)
(0.0504095 0.000372262 -0.00119916)
(0.0509434 0.00035087 -0.00105804)
(0.0514045 0.000327081 -0.000943621)
(0.0519285 0.000287021 -0.00097514)
(0.0522916 0.000253408 -0.00114187)
(0.0527389 0.000263656 -0.00141538)
(0.0530817 0.000294971 -0.00167963)
(0.0535089 0.000322573 -0.00183736)
(0.0538266 0.000360066 -0.00189072)
(0.0663777 0.000580604 -0.00238918)
(0.0667868 0.000578858 -0.00228447)
(0.0673163 0.000568185 -0.0022085)
(0.0676973 0.000493813 -0.00211619)
(0.0680803 0.00039181 -0.00207864)
(0.0683168 0.000304773 -0.00208962)
(0.0685629 0.000204354 -0.00208294)
(0.0686015 0.000121856 -0.00200893)
(0.0687293 6.87827e-05 -0.00192435)
(0.0686835 3.43748e-05 -0.00176057)
(0.0686988 1.99533e-05 -0.00157322)
(0.0686424 9.16544e-06 -0.00144479)
(0.0686353 1.1044e-05 -0.00129284)
(0.0685283 8.48778e-06 -0.00116582)
(0.0685186 2.1159e-05 -0.00109205)
(0.06839 4.44342e-05 -0.000987126)
(0.0683868 6.29057e-05 -0.000949843)
(0.0683131 8.36182e-05 -0.000860994)
(0.0683801 8.31188e-05 -0.000746401)
(0.0683782 7.8062e-05 -0.000628017)
(0.068458 7.13484e-05 -0.000503275)
(0.068437 6.78441e-05 -0.000442419)
(0.0684185 7.07266e-05 -0.000436509)
(0.0682132 8.08972e-05 -0.000460879)
(0.0679551 8.58156e-05 -0.00051936)
(0.0674433 9.16072e-05 -0.000534065)
(0.0668231 8.95048e-05 -0.000556421)
(0.0659394 7.98077e-05 -0.000571238)
(0.0650372 8.88853e-05 -0.000613148)
(0.0640189 0.000134342 -0.000659984)
(0.0631109 0.000189221 -0.00065429)
(0.0622959 0.000238188 -0.000552337)
(0.061684 0.00027746 -0.000379173)
(0.0611163 0.000285091 -0.000213189)
(0.0607164 0.00031349 -0.000108863)
(0.0604399 0.000355112 -0.000172836)
(0.0603276 0.000395341 -0.000379099)
(0.0603065 0.00044446 -0.000616582)
(0.0604295 0.000491128 -0.000885867)
(0.0606036 0.000525896 -0.00108299)
(0.060912 0.000521184 -0.00119597)
(0.0613627 0.000510736 -0.0011302)
(0.0619612 0.00044521 -0.000928375)
(0.0624982 0.000381438 -0.000786098)
(0.0631439 0.000314812 -0.000868759)
(0.0635844 0.000267841 -0.00113009)
(0.0641721 0.000291245 -0.00153319)
(0.0646606 0.00036817 -0.00195162)
(0.0652894 0.000440811 -0.00223318)
(0.0657807 0.000524983 -0.00237793)
(0.0773796 0.000717597 -0.00277601)
(0.0780191 0.000764991 -0.00270675)
(0.0787946 0.000781502 -0.0026675)
(0.079407 0.000724269 -0.00262825)
(0.0799939 0.000620088 -0.0026047)
(0.0803462 0.000529777 -0.00267702)
(0.0807059 0.00042352 -0.00276443)
(0.080697 0.000313547 -0.00272372)
(0.080783 0.000229297 -0.00263757)
(0.080663 0.000172005 -0.00243099)
(0.08061 0.000131676 -0.00211991)
(0.08052 0.000103389 -0.00187223)
(0.0805369 9.70295e-05 -0.00162862)
(0.0804163 7.63286e-05 -0.00139074)
(0.0804196 7.60274e-05 -0.00128244)
(0.0802536 9.0659e-05 -0.00117081)
(0.0802233 0.000103425 -0.00114868)
(0.0801408 0.000128362 -0.00110586)
(0.0802077 0.000124479 -0.00096144)
(0.0802743 0.000115359 -0.0007845)
(0.0804662 0.000101209 -0.000578837)
(0.080596 9.1512e-05 -0.00042224)
(0.0808188 8.98909e-05 -0.000357703)
(0.0808816 9.74392e-05 -0.000329721)
(0.0809513 0.0001014 -0.000342704)
(0.0807688 0.000106036 -0.000296717)
(0.0804792 0.000110213 -0.000280201)
(0.0798519 0.000111936 -0.000301272)
(0.0790631 0.000123651 -0.000360037)
(0.0780322 0.000183319 -0.000486078)
(0.0769682 0.000247136 -0.000550985)
(0.0758489 0.000295739 -0.000480908)
(0.0748794 0.000344912 -0.000308683)
(0.0739237 0.00035336 -0.000119565)
(0.0730731 0.00038361 -5.00952e-06)
(0.0723222 0.000436252 -7.86594e-05)
(0.0717794 0.000504708 -0.000328883)
(0.0713991 0.00060008 -0.000592315)
(0.0712611 0.000704479 -0.000869781)
(0.071302 0.000794016 -0.00105162)
(0.0715024 0.000780973 -0.001076)
(0.0719161 0.000720825 -0.000886854)
(0.0725223 0.000575086 -0.000525487)
(0.0730532 0.000423504 -0.000234339)
(0.0737416 0.000288812 -0.000304452)
(0.0741304 0.000192374 -0.000669117)
(0.0746715 0.000183513 -0.00123059)
(0.0751147 0.000282278 -0.00186514)
(0.0758398 0.000405814 -0.00233996)
(0.0764867 0.000569845 -0.00263389)
(0.0866032 0.000616603 -0.00280019)
(0.0873826 0.000777563 -0.00281574)
(0.0883927 0.000864633 -0.0027948)
(0.0892857 0.000858655 -0.00283412)
(0.0902378 0.00079623 -0.00286745)
(0.0908606 0.00073814 -0.00299029)
(0.0915485 0.00067201 -0.00323114)
(0.0917031 0.000579778 -0.00334846)
(0.0918145 0.000473748 -0.00337024)
(0.0916711 0.000389761 -0.00325353)
(0.09153 0.000312998 -0.0029194)
(0.091346 0.000249722 -0.00254927)
(0.0913869 0.000234866 -0.00219083)
(0.0913044 0.000201477 -0.0017762)
(0.0913701 0.000188992 -0.00152471)
(0.0912535 0.000194247 -0.00136757)
(0.0911841 0.000184001 -0.00132797)
(0.0910592 0.00019655 -0.00137707)
(0.0910383 0.00017774 -0.00130438)
(0.0910339 0.000155549 -0.00111557)
(0.0912194 0.000138054 -0.000871305)
(0.0913629 0.000132752 -0.000620302)
(0.091681 0.000139087 -0.000472961)
(0.091873 0.000148022 -0.000379962)
(0.0921193 0.000149638 -0.000340573)
(0.0921747 0.000141174 -0.000197049)
(0.0921698 0.000117416 -1.17976e-05)
(0.0919465 0.000114301 7.34639e-05)
(0.0915921 0.000121443 0.000127774)
(0.0909961 0.000192698 3.4524e-05)
(0.0903342 0.000286372 -9.46101e-05)
(0.0894291 0.000344555 -5.76401e-05)
(0.088484 0.000405194 8.14125e-05)
(0.0874184 0.00042215 0.000262956)
(0.0863173 0.000466135 0.000352646)
(0.0851547 0.000524673 0.000176952)
(0.0840657 0.000602407 -0.000242577)
(0.0831134 0.000723556 -0.000679006)
(0.0824194 0.00088145 -0.00106852)
(0.0821036 0.00107308 -0.00128853)
(0.0820759 0.0011138 -0.00120653)
(0.0823668 0.00103012 -0.00078757)
(0.082969 0.0008043 -0.000133741)
(0.0834659 0.000540343 0.000514856)
(0.0841947 0.000305097 0.000687626)
(0.0845243 0.000132841 0.000332598)
(0.0848811 2.66535e-05 -0.000342115)
(0.0849443 4.60749e-05 -0.00121868)
(0.0853425 0.000149198 -0.00198253)
(0.0856989 0.000353991 -0.00247615)
(0.0949911 0.000244088 -0.0023384)
(0.0952745 0.000505206 -0.00250065)
(0.0960888 0.000697178 -0.00248997)
(0.0969183 0.000760009 -0.00255803)
(0.0980895 0.000760173 -0.00268223)
(0.0989674 0.000764976 -0.00285275)
(0.100019 0.000777757 -0.00318284)
(0.100607 0.000784512 -0.00349293)
(0.10097 0.00073023 -0.00369817)
(0.100986 0.000655057 -0.00379099)
(0.100887 0.00055619 -0.00364165)
(0.100611 0.00043932 -0.00329793)
(0.10061 0.000394669 -0.00289799)
(0.100594 0.000352515 -0.00233717)
(0.100764 0.000331312 -0.00181855)
(0.100864 0.000339856 -0.00148883)
(0.10096 0.000313713 -0.00132841)
(0.100957 0.000298799 -0.00139918)
(0.100989 0.000244308 -0.0015007)
(0.100934 0.000178995 -0.00143464)
(0.101059 0.000131946 -0.00127205)
(0.101155 0.000129374 -0.0010382)
(0.101455 0.000170383 -0.000868581)
(0.101708 0.000221936 -0.00075898)
(0.101987 0.000252733 -0.000710743)
(0.102131 0.000264572 -0.000577654)
(0.102156 0.000208745 -0.000227638)
(0.101971 0.000157845 4.63101e-05)
(0.101727 0.000116073 0.000311284)
(0.101304 0.00014067 0.00051105)
(0.101051 0.000236384 0.00054066)
(0.100687 0.000307522 0.000733697)
(0.100294 0.000380541 0.00101344)
(0.0997079 0.000416797 0.00125266)
(0.0990047 0.000509951 0.00137643)
(0.0981 0.000619142 0.00110997)
(0.0969524 0.000720493 0.000385581)
(0.0957043 0.000843525 -0.000509667)
(0.0944406 0.00100305 -0.00135752)
(0.0935906 0.00128659 -0.00195817)
(0.0932026 0.00144039 -0.00203852)
(0.0932108 0.00138686 -0.00145542)
(0.0937118 0.00111547 -0.000446053)
(0.0941065 0.000767983 0.000731384)
(0.0948372 0.000437759 0.00150432)
(0.0952288 0.000224898 0.0015109)
(0.0956423 6.93308e-05 0.000973816)
(0.0954052 -3.71375e-05 5.418e-05)
(0.0952818 -9.42868e-05 -0.000991811)
(0.094811 -2.14523e-05 -0.00177666)
(0.104655 -5.87611e-05 -0.00139392)
(0.103821 9.96102e-05 -0.00174487)
(0.103701 0.000309747 -0.00176285)
(0.103775 0.000427733 -0.00179278)
(0.104506 0.000467845 -0.00197496)
(0.105243 0.000524394 -0.00228135)
(0.106244 0.000605068 -0.0026903)
(0.107081 0.000735974 -0.00312685)
(0.107718 0.000823481 -0.0034722)
(0.107989 0.000845006 -0.00371602)
(0.108097 0.000794065 -0.00382415)
(0.107879 0.00065938 -0.00369422)
(0.107797 0.000570131 -0.00341413)
(0.10778 0.000512582 -0.00289838)
(0.107977 0.000485183 -0.00217281)
(0.108242 0.000493485 -0.00154653)
(0.108615 0.000458929 -0.0010975)
(0.108933 0.000414643 -0.000929473)
(0.109313 0.000311534 -0.00104096)
(0.109558 0.00018131 -0.00113193)
(0.109814 5.34208e-05 -0.00116141)
(0.11002 -1.9632e-06 -0.00112106)
(0.110322 5.08877e-05 -0.00109098)
(0.110702 0.000175059 -0.0011398)
(0.111095 0.000284205 -0.00121316)
(0.111394 0.000376409 -0.00129348)
(0.11157 0.000367927 -0.00105191)
(0.111359 0.000311452 -0.000689176)
(0.111046 0.00024757 -0.000361999)
(0.110367 0.00021055 0.000105286)
(0.10986 0.000225814 0.000459927)
(0.109377 0.000220488 0.00101165)
(0.109086 0.00022536 0.00182379)
(0.108778 0.000203552 0.00254391)
(0.108524 0.000309822 0.00304125)
(0.108416 0.000527781 0.00300492)
(0.10809 0.000742441 0.00221891)
(0.107555 0.000926057 0.000861113)
(0.106517 0.00105821 -0.000759172)
(0.105445 0.00135154 -0.00225738)
(0.10481 0.00162186 -0.00318974)
(0.104539 0.00167521 -0.00305137)
(0.104825 0.00141583 -0.00201633)
(0.104949 0.00102509 -0.000450137)
(0.105411 0.000619895 0.00105234)
(0.105632 0.000396845 0.00182105)
(0.106282 0.000309404 0.00182242)
(0.106295 0.000224736 0.00128581)
(0.106292 6.42251e-05 0.000332586)
(0.105367 -9.49189e-05 -0.000594401)
(0.115375 0.000104681 -0.000519568)
(0.114202 -1.12867e-05 -0.000962656)
(0.113201 1.78421e-05 -0.000928472)
(0.112259 6.00277e-05 -0.000770016)
(0.11192 6.35453e-05 -0.000768718)
(0.111925 0.00010402 -0.00116755)
(0.11227 0.000204301 -0.00180326)
(0.112702 0.000415699 -0.00246304)
(0.113116 0.000664944 -0.0030001)
(0.113299 0.000855477 -0.00330327)
(0.113414 0.000925808 -0.00350637)
(0.113284 0.000848753 -0.00356108)
(0.113153 0.000750454 -0.00344276)
(0.113065 0.000686034 -0.00310395)
(0.113225 0.000667853 -0.00239869)
(0.113482 0.000683492 -0.00159469)
(0.113962 0.000640408 -0.000881252)
(0.114512 0.000560751 -0.000358442)
(0.115135 0.000394623 -0.000152996)
(0.11584 0.000178674 -9.06005e-05)
(0.116416 -7.08665e-05 -7.12727e-05)
(0.116997 -0.000234742 -0.000130935)
(0.117514 -0.000249988 -0.000259131)
(0.118125 -0.000107487 -0.000565848)
(0.118868 7.9418e-05 -0.000928289)
(0.119514 0.000251319 -0.00135754)
(0.120171 0.000335383 -0.00159706)
(0.12024 0.000351938 -0.00150023)
(0.120144 0.000369872 -0.00144695)
(0.119516 0.000401602 -0.00118557)
(0.118864 0.000417508 -0.000836412)
(0.118096 0.000325822 -0.000192814)
(0.117387 0.000177528 0.0011146)
(0.116708 -3.49968e-05 0.00266944)
(0.115929 -0.000108126 0.00410346)
(0.115622 7.16665e-05 0.00490071)
(0.115582 0.000401195 0.00469485)
(0.115957 0.000738815 0.00349304)
(0.11607 0.000938245 0.00146551)
(0.115754 0.00122085 -0.000912731)
(0.115439 0.00153324 -0.00307416)
(0.115174 0.00171444 -0.00414877)
(0.115324 0.00154236 -0.00388853)
(0.115117 0.00116211 -0.00256127)
(0.115165 0.000718225 -0.000781167)
(0.114783 0.000468086 0.00066645)
(0.115193 0.000452062 0.00133643)
(0.115342 0.000517862 0.00139671)
(0.11603 0.000518236 0.000889415)
(0.11581 0.000324667 0.00022585)
(0.12344 0.000604953 -0.000530559)
(0.123262 0.000288592 -0.000980457)
(0.122626 1.92552e-05 -0.000895279)
(0.12161 -0.000147102 -0.000459691)
(0.120699 -0.000230121 0.000119525)
(0.120081 -0.000238481 0.000221801)
(0.119753 -0.00017582 -0.000366231)
(0.119513 1.60058e-05 -0.00128604)
(0.119246 0.000350109 -0.00225696)
(0.118838 0.000715747 -0.00286587)
(0.118442 0.000954893 -0.00319601)
(0.118001 0.000987986 -0.00332897)
(0.117662 0.000916451 -0.00325125)
(0.117352 0.000862432 -0.00300718)
(0.117382 0.000871518 -0.00236473)
(0.117561 0.000913264 -0.001543)
(0.117945 0.000868804 -0.000738057)
(0.118649 0.000761849 -0.000113406)
(0.119273 0.000547848 0.000254594)
(0.120218 0.000279146 0.000520626)
(0.120937 -5.44496e-05 0.00084656)
(0.121663 -0.000326715 0.00116709)
(0.122347 -0.000465839 0.00134572)
(0.122993 -0.000427551 0.00120189)
(0.124035 -0.000259071 0.000738236)
(0.125079 -6.66784e-05 9.2961e-05)
(0.126478 3.17703e-05 -0.000633395)
(0.127267 6.57534e-05 -0.0010294)
(0.127721 0.000129178 -0.00143402)
(0.127575 0.000295635 -0.00182235)
(0.127246 0.000507751 -0.00215488)
(0.126859 0.000545656 -0.00227406)
(0.126208 0.000368976 -0.00139287)
(0.125519 -1.51082e-05 0.000509232)
(0.124307 -0.000352453 0.00305112)
(0.123176 -0.00041366 0.00525581)
(0.122178 -0.000189671 0.00628267)
(0.121951 0.000184885 0.00593499)
(0.122235 0.000480928 0.00423869)
(0.12261 0.00080441 0.00170108)
(0.123071 0.00117322 -0.00115454)
(0.123294 0.001491 -0.00336187)
(0.123613 0.00147377 -0.00431029)
(0.123128 0.00117121 -0.00383715)
(0.122792 0.000709279 -0.00245237)
(0.121795 0.000384648 -0.000854898)
(0.121728 0.00033454 0.000210927)
(0.121552 0.000499704 0.000663211)
(0.122342 0.000748225 0.000440906)
(0.122902 0.000809948 -1.14457e-05)
(0.127717 0.000978824 -0.00103317)
(0.128528 0.000741449 -0.00158815)
(0.128691 0.000309259 -0.0016789)
(0.12814 -0.000141327 -0.00134146)
(0.127355 -0.000416332 -0.000514536)
(0.126846 -0.000484193 0.000369874)
(0.126664 -0.000387378 0.00053892)
(0.126573 -0.000194692 4.29284e-05)
(0.12616 0.000115603 -0.00100084)
(0.12537 0.000529491 -0.00198961)
(0.124448 0.000896803 -0.00276311)
(0.123446 0.00107229 -0.00326651)
(0.122642 0.00104816 -0.00329198)
(0.121875 0.00100071 -0.00309812)
(0.121503 0.00103934 -0.00243285)
(0.121484 0.00113312 -0.00160558)
(0.121505 0.00111117 -0.000771289)
(0.122155 0.000972381 -0.000146238)
(0.122641 0.000711254 6.60552e-05)
(0.12364 0.000420761 0.000112198)
(0.124536 9.605e-05 0.00026336)
(0.125254 -0.000205114 0.00083302)
(0.125953 -0.000389289 0.00162086)
(0.126297 -0.00043382 0.00231263)
(0.127083 -0.000355263 0.00251346)
(0.127995 -0.00022562 0.0022572)
(0.129646 -0.000234696 0.00156792)
(0.131188 -0.000284925 0.000867145)
(0.132382 -0.000302641 0.000159608)
(0.132981 -0.000199521 -0.000649604)
(0.133098 0.000104833 -0.00163378)
(0.133388 0.000386821 -0.00289968)
(0.133288 0.000434183 -0.00355914)
(0.133122 0.000128932 -0.00284544)
(0.132358 -0.000328249 -0.000257698)
(0.131348 -0.000618511 0.00322372)
(0.129939 -0.000580588 0.00595712)
(0.128706 -0.000339136 0.00710105)
(0.127944 -7.41946e-05 0.00622739)
(0.127595 0.00021488 0.00405762)
(0.127797 0.000594522 0.00123286)
(0.128056 0.00106728 -0.00131858)
(0.128587 0.00131596 -0.00306316)
(0.128088 0.00124919 -0.003467)
(0.127554 0.000850544 -0.00279233)
(0.126126 0.000419665 -0.00153572)
(0.12558 0.000168984 -0.000391631)
(0.125126 0.000209597 0.000275835)
(0.125634 0.000527696 0.000146323)
(0.126545 0.000908917 -0.000474997)
(0.129268 0.000945904 -0.0010308)
(0.130635 0.000974522 -0.00188707)
(0.131619 0.000685293 -0.00231384)
(0.131694 0.000126679 -0.00229294)
(0.131035 -0.000386192 -0.00178552)
(0.130477 -0.000674443 -0.000787819)
(0.130447 -0.000617 -0.000137075)
(0.131053 -0.000308003 3.22163e-05)
(0.131459 0.000111351 -0.00042831)
(0.131191 0.000539748 -0.00107556)
(0.130443 0.000882493 -0.00183777)
(0.129309 0.00110438 -0.00285678)
(0.128279 0.00109697 -0.0033214)
(0.127161 0.00102813 -0.00337486)
(0.126207 0.00107437 -0.00277596)
(0.125801 0.00124067 -0.00196898)
(0.125226 0.00132001 -0.00123308)
(0.125481 0.00118688 -0.000559854)
(0.125586 0.000854123 -0.000371681)
(0.126247 0.000471997 -0.000508962)
(0.127176 0.000139818 -0.000955446)
(0.127969 -0.000132655 -0.000975553)
(0.128875 -0.00025533 -0.000283596)
(0.129201 -0.000236745 0.000987565)
(0.129601 -0.000151597 0.00222569)
(0.12998 -5.7735e-05 0.00295094)
(0.13113 -0.000221276 0.00306051)
(0.132762 -0.000477645 0.0027419)
(0.13438 -0.000636131 0.00208877)
(0.13571 -0.000685222 0.00122709)
(0.136215 -0.000493067 0.000191896)
(0.136907 -0.000166965 -0.00148903)
(0.137305 7.09327e-05 -0.00330309)
(0.137571 2.45632e-05 -0.00453267)
(0.137267 -0.000306099 -0.00353239)
(0.136806 -0.000709546 -0.000157907)
(0.136201 -0.000776896 0.00375181)
(0.135299 -0.000636969 0.00669445)
(0.134193 -0.000426919 0.00716525)
(0.132923 -0.000168426 0.00561111)
(0.131933 0.000139605 0.00306233)
(0.131192 0.000620205 0.000664124)
(0.131234 0.00106929 -0.00129914)
(0.130619 0.0013422 -0.00226429)
(0.130039 0.00120678 -0.00217357)
(0.128535 0.000811047 -0.00136699)
(0.127651 0.00034685 -0.00032836)
(0.127077 7.15545e-05 0.000525566)
(0.12723 0.000141156 0.000657857)
(0.127987 0.0005984 -0.000145405)
(0.129763 0.000720274 -0.00014031)
(0.130908 0.000946705 -0.00129844)
(0.132208 0.000834528 -0.00215436)
(0.133103 0.000332176 -0.00254698)
(0.133164 -0.00026491 -0.0025255)
(0.132866 -0.000730138 -0.00178691)
(0.132636 -0.000858052 -0.00114283)
(0.133286 -0.000548446 -0.000870595)
(0.134302 0.000119053 -0.00110894)
(0.134822 0.000811645 -0.00131244)
(0.13484 0.00120655 -0.00126688)
(0.134215 0.00135545 -0.00209135)
(0.133492 0.00120711 -0.00297769)
(0.132553 0.000997355 -0.00348571)
(0.131219 0.000981681 -0.00311608)
(0.130366 0.00120154 -0.00230889)
(0.1291 0.00144239 -0.00180245)
(0.12878 0.00140825 -0.00131931)
(0.12852 0.00103648 -0.00114555)
(0.128726 0.000490996 -0.00105187)
(0.129369 6.28958e-06 -0.00155281)
(0.129956 -0.000308024 -0.00228926)
(0.130882 -0.000369126 -0.0024521)
(0.13143 -0.000171028 -0.001626)
(0.131824 8.57872e-05 -1.28975e-05)
(0.131858 0.000258897 0.00147487)
(0.13231 2.58994e-05 0.00244666)
(0.133475 -0.000518853 0.00303635)
(0.134908 -0.000949253 0.00302179)
(0.136663 -0.00115032 0.00245255)
(0.1376 -0.00104603 0.0016923)
(0.13849 -0.000743718 0.000213962)
(0.139156 -0.00046529 -0.00167264)
(0.139686 -0.000358294 -0.00388914)
(0.13955 -0.000431706 -0.00471451)
(0.138954 -0.00080563 -0.0025768)
(0.138715 -0.000983101 0.00121423)
(0.138743 -0.000918183 0.00524375)
(0.138542 -0.000722424 0.00720169)
(0.137692 -0.000358915 0.00651822)
(0.136154 1.22352e-05 0.00427524)
(0.134289 0.000430667 0.00211939)
(0.133374 0.00085259 0.000253658)
(0.132388 0.00132211 -0.00104268)
(0.131729 0.00151692 -0.00146136)
(0.130353 0.00135694 -0.00109003)
(0.129261 0.000878254 -0.000169583)
(0.128539 0.000315454 0.000876126)
(0.128455 -2.92177e-05 0.00152429)
(0.128882 0.000237748 0.00094582)
(0.130339 0.000531174 0.00101717)
(0.130883 0.000901646 -0.000216851)
(0.131806 0.000907181 -0.0012888)
(0.132996 0.000411819 -0.00193631)
(0.133934 -0.000288424 -0.00234626)
(0.134598 -0.000883976 -0.00196807)
(0.13478 -0.00119476 -0.00133684)
(0.13528 -0.00103833 -0.00108552)
(0.136283 -0.00021226 -0.00162124)
(0.136962 0.000938393 -0.00225711)
(0.137414 0.00173741 -0.00167269)
(0.137491 0.00201949 -0.00153022)
(0.137403 0.00171951 -0.00222035)
(0.137153 0.00123463 -0.00318178)
(0.135906 0.00102685 -0.00331662)
(0.134805 0.00122152 -0.00249985)
(0.133007 0.00159446 -0.0020227)
(0.132108 0.00167863 -0.00179417)
(0.131641 0.00130215 -0.00191292)
(0.131693 0.000599564 -0.00171819)
(0.132192 -0.000154763 -0.00170974)
(0.132443 -0.000668245 -0.00246819)
(0.132965 -0.000804354 -0.0033451)
(0.133349 -0.000470419 -0.00351315)
(0.133744 7.39705e-05 -0.00235022)
(0.133693 0.000496739 -0.000620693)
(0.133632 0.000317796 0.000757322)
(0.134221 -0.00045718 0.00200477)
(0.135014 -0.00126442 0.00285565)
(0.136564 -0.00176022 0.00287429)
(0.137763 -0.00172571 0.0025082)
(0.138895 -0.00133591 0.00129967)
(0.139817 -0.000987393 -0.000281786)
(0.14066 -0.000859897 -0.00241135)
(0.140862 -0.000736457 -0.00421364)
(0.139962 -0.000918025 -0.00332717)
(0.139067 -0.0011376 -0.000349915)
(0.139043 -0.00115924 0.00371573)
(0.139566 -0.00107215 0.00666552)
(0.140029 -0.000674866 0.00695094)
(0.139398 -0.000106712 0.00503565)
(0.137403 0.000420321 0.00299484)
(0.135748 0.000770698 0.00135281)
(0.134242 0.00124469 3.25118e-06)
(0.13334 0.00164464 -0.000774018)
(0.132121 0.00177362 -0.00091921)
(0.131071 0.00154285 -0.000276644)
(0.130214 0.000942316 0.000819087)
(0.129866 0.000223394 0.00198543)
(0.129947 0.000101723 0.00198782)
(0.131427 0.00065338 0.00153441)
(0.131528 0.00100745 0.000362675)
(0.13188 0.000979199 -0.000693805)
(0.132689 0.000356006 -0.00118194)
(0.133749 -0.000576596 -0.0014859)
(0.135084 -0.00135262 -0.00126321)
(0.136171 -0.00181909 -0.000524067)
(0.137036 -0.00189726 7.7694e-05)
(0.13811 -0.00108665 -0.000473481)
(0.138733 0.000465016 -0.00217459)
(0.139008 0.00187926 -0.00239975)
(0.13935 0.00263789 -0.00164839)
(0.139763 0.00248831 -0.00144304)
(0.140413 0.00188222 -0.00230775)
(0.139773 0.00145995 -0.00312573)
(0.13882 0.0015153 -0.00259183)
(0.136954 0.00191397 -0.0019394)