/*--------------------------------*- C++ -*----------------------------------*\
| =========                 |                                                 |
| \\      /  F ield         | OpenFOAM: The Open Source CFD Toolbox           |
|  \\    /   O peration     | Version:  2.3.0                                 |
|   \\  /    A nd           | Web:      www.OpenFOAM.org                      |
|    \\/     M anipulation  |                                                 |
\*---------------------------------------------------------------------------*/
FoamFile
{
    version     2.0;
    format      ascii;
    class       volVectorField;
    location    "200";
    object      U;
}
// * * * * * * * * * * * * * * * * * * * * * * * * * * * * * * * * * * * * * //

dimensions      [0 1 -1 0 0 0 0];

internalField   nonuniform List<vector> 
60000
(
(0.00887404 -6.80096e-05 0.0015734)
(0.00954977 -5.41363e-05 0.00179935)
(0.010279 -2.88959e-05 0.00162913)
(0.0109011 -9.35104e-06 0.00138261)
(0.0115155 -1.09842e-06 0.0011649)
(0.0123856 7.70628e-06 0.00127595)
(0.0134004 1.67733e-05 0.00170426)
(0.0140981 4.55955e-06 0.00169411)
(0.0142906 -2.91323e-06 0.00083108)
(0.0140847 -1.52824e-05 -0.000354508)
(0.0134102 -1.37923e-05 -0.00119451)
(0.0125475 -3.49045e-05 -0.00133184)
(0.0118849 -9.16369e-05 -0.000815602)
(0.0116649 -0.000108815 -0.000134921)
(0.0115711 -7.3471e-05 0.000108803)
(0.0111967 -2.84344e-05 -0.000111198)
(0.0104482 -2.24195e-06 -0.000404425)
(0.00966015 -1.42895e-05 -0.000595376)
(0.00928994 -2.4799e-05 -0.000721412)
(0.0094012 -4.75765e-06 -0.000789828)
(0.00957582 2.2076e-05 -0.000621539)
(0.00949548 4.40668e-05 -0.000136799)
(0.00943331 5.75829e-05 0.000303702)
(0.00972415 3.81617e-05 0.000515929)
(0.0103921 1.25762e-05 0.000512991)
(0.0112003 1.56774e-05 0.000417086)
(0.0115268 4.81221e-05 0.000193677)
(0.0109479 6.92919e-05 -0.000408681)
(0.00997434 4.94588e-05 -0.0010783)
(0.00901508 -5.43728e-05 -0.00120127)
(0.0082013 -0.000140131 -0.000827045)
(0.0078528 -0.00020117 -0.000240065)
(0.00803559 -0.00019316 0.000175045)
(0.00809721 -6.62927e-05 -8.98103e-05)
(0.00773029 2.77178e-05 -0.000499088)
(0.00744892 5.27952e-05 -0.000598371)
(0.00749954 4.43821e-05 -0.000536254)
(0.00772066 3.73056e-05 -0.00038674)
(0.00798011 3.83469e-06 0.000109368)
(0.0083609 -4.37729e-05 0.00088237)
(0.0263109 -0.000367681 0.00234816)
(0.0274344 -0.000281641 0.00265271)
(0.0289965 -0.000186942 0.00233766)
(0.0307461 -0.000156258 0.00185214)
(0.032675 -0.000187573 0.00156834)
(0.0352604 -0.000187647 0.00240708)
(0.0382403 -0.000159982 0.00436914)
(0.0405522 -0.000167525 0.00529467)
(0.0419326 -0.000159248 0.0037998)
(0.0426257 -0.000161941 0.000944398)
(0.0419618 -0.000130757 -0.00180254)
(0.0402156 -0.000223078 -0.0033195)
(0.0379247 -0.000427286 -0.00286518)
(0.0359707 -0.000434051 -0.00121539)
(0.0344819 -0.000240805 -0.000202773)
(0.033025 -1.8902e-05 -0.000228048)
(0.0312313 8.93403e-05 -0.000450937)
(0.0291702 8.91677e-05 -0.000477643)
(0.027705 9.42694e-05 -0.00064014)
(0.0275511 0.000157288 -0.000844349)
(0.0281126 0.000250774 -0.000524721)
(0.0285009 0.000311894 0.000201312)
(0.0290701 0.000284999 0.000825731)
(0.0301496 0.000156681 0.00136575)
(0.0314174 5.27284e-05 0.00168436)
(0.0328705 6.47731e-05 0.00167767)
(0.0341558 0.000166203 0.00110598)
(0.0345295 0.00018024 -0.000466943)
(0.0338395 -2.449e-05 -0.00202171)
(0.0315071 -0.000396121 -0.00222985)
(0.0279194 -0.000709663 -0.00156502)
(0.0247605 -0.000883574 -0.000909714)
(0.0230198 -0.000723067 -0.00058776)
(0.0220668 -0.000189319 -0.000910729)
(0.0213645 0.000167607 -0.0011434)
(0.0213144 0.000218888 -0.000851634)
(0.0219817 0.000141728 -0.000483221)
(0.0231656 5.09288e-05 -0.000193562)
(0.0244199 -0.000108181 0.000461848)
(0.0254757 -0.000301025 0.00144288)
(0.0413803 -0.000702737 0.00165003)
(0.0423458 -0.000535316 0.00196333)
(0.0441494 -0.000355604 0.00166369)
(0.0464302 -0.000348958 0.000827671)
(0.0489782 -0.000452614 -0.000203711)
(0.0525958 -0.000579817 0.000431944)
(0.0567172 -0.000683121 0.00397898)
(0.0600962 -0.000812571 0.00764791)
(0.0629038 -0.000790403 0.00812387)
(0.0662694 -0.000643698 0.00558409)
(0.0683226 -0.000320691 0.00117866)
(0.066977 -0.000294345 -0.00333891)
(0.0627521 -0.00062606 -0.005092)
(0.0587569 -0.000677842 -0.00329311)
(0.056091 -0.00035237 -0.00106776)
(0.0541505 5.81069e-05 -0.000523755)
(0.0522926 0.000243451 -0.0006528)
(0.049433 0.000292028 -0.000112158)
(0.0461007 0.000362303 0.000429058)
(0.0446221 0.000476918 0.000258693)
(0.0453477 0.000636469 0.000385835)
(0.0466895 0.000769728 0.00086799)
(0.0483834 0.000693488 0.00102474)
(0.0505137 0.000482351 0.00150161)
(0.0519788 0.000330653 0.00246133)
(0.0530918 0.000239228 0.00341756)
(0.0552096 0.00021078 0.00378808)
(0.0585064 3.84536e-05 0.0021988)
(0.0612275 -0.000353351 -0.000700838)
(0.059724 -0.000792321 -0.00209301)
(0.052979 -0.00122009 -0.00164306)
(0.0444458 -0.00153691 -0.00119602)
(0.0384102 -0.00124031 -0.00132838)
(0.0354928 -0.000290945 -0.00184919)
(0.0342948 0.000369069 -0.00197706)
(0.0343479 0.000425982 -0.00127028)
(0.0353155 0.000257225 -0.000400654)
(0.0371754 6.56133e-05 3.09541e-05)
(0.0392918 -0.000221337 0.000438424)
(0.0407426 -0.000570742 0.00102412)
(0.0533698 -0.000855951 0.000747439)
(0.053736 -0.000662659 0.000494626)
(0.0552582 -0.000397186 0.000137958)
(0.0573618 -0.000354035 -0.000887254)
(0.0593649 -0.000467827 -0.00297817)
(0.0629518 -0.000679923 -0.00369588)
(0.067601 -0.00102547 0.000326529)
(0.0706974 -0.00157293 0.00669167)
(0.0725254 -0.00195869 0.0102926)
(0.0771632 -0.00191149 0.0104816)
(0.0842253 -0.00102162 0.00714321)
(0.0864955 -0.000225143 0.000115768)
(0.0812161 -0.000291327 -0.00577457)
(0.0752133 -0.000443057 -0.00566803)
(0.0722856 -0.000296941 -0.00223099)
(0.0708789 0.000238278 -0.000491492)
(0.0700931 0.000487232 -0.00105253)
(0.0682405 0.000467181 -0.000906866)
(0.064006 0.000565681 0.000783097)
(0.0602058 0.000796326 0.00190522)
(0.0595228 0.0011062 0.00247798)
(0.0609991 0.00143407 0.00285501)
(0.0635573 0.00128673 0.0018244)
(0.0673209 0.000854792 0.000610564)
(0.0708092 0.00077173 0.00117491)
(0.0725058 0.000806436 0.00337879)
(0.0737809 0.000610621 0.00633804)
(0.0771302 -3.39413e-05 0.0073852)
(0.0828468 -0.000843264 0.00440117)
(0.08634 -0.00129369 0.000527738)
(0.0813795 -0.0015313 -0.000499599)
(0.0684016 -0.00187685 -0.000380441)
(0.0558829 -0.00158326 -0.00137225)
(0.0490948 -0.000326833 -0.00279931)
(0.0465239 0.000666277 -0.0033403)
(0.0461876 0.000703147 -0.00252295)
(0.0469307 0.000410896 -0.000943662)
(0.048763 0.00017469 0.00028457)
(0.0512809 -0.000167437 0.000932172)
(0.0530816 -0.000618064 0.00101891)
(0.063366 -0.000674994 0.00108975)
(0.0628496 -0.00051179 -0.000532238)
(0.0637933 -0.000118116 -0.00152732)
(0.0658318 6.0843e-05 -0.0026038)
(0.0668914 -9.12326e-05 -0.00535927)
(0.0688999 -0.000343431 -0.00788203)
(0.0736252 -0.000748852 -0.00474271)
(0.0771779 -0.00164766 0.00325002)
(0.0769381 -0.00283985 0.00924641)
(0.078112 -0.0036257 0.0120154)
(0.0872072 -0.00258843 0.0123619)
(0.096455 -0.000704067 0.00643503)
(0.0944152 0.000162625 -0.00367595)
(0.0863842 0.000426276 -0.00800347)
(0.0822107 0.000425371 -0.00435826)
(0.0813344 0.000822865 4.46495e-05)
(0.0817686 0.00104756 8.41546e-05)
(0.0820593 0.000930709 -0.00159981)
(0.0794409 0.00085047 -0.000761227)
(0.074684 0.000968152 0.0018048)
(0.0714676 0.00143247 0.00444931)
(0.0713611 0.00216411 0.00637428)
(0.0738078 0.00222312 0.0052373)
(0.0777933 0.0013313 0.0015363)
(0.08261 0.000780564 -0.00110617)
(0.087357 0.00104356 -0.000502052)
(0.0912969 0.00123768 0.00387008)
(0.0941885 0.00050158 0.00947472)
(0.0978512 -0.000786723 0.0107235)
(0.103493 -0.00144149 0.00656304)
(0.105249 -0.00139022 0.00283713)
(0.0941959 -0.00167074 0.0017187)
(0.0761035 -0.00156247 -0.00020095)
(0.0636838 -0.000213639 -0.00318817)
(0.0585996 0.00111609 -0.00478879)
(0.0573694 0.00112687 -0.00439213)
(0.0575719 0.000544841 -0.00249759)
(0.0589186 0.000199228 -0.000169803)
(0.0612824 -4.66448e-05 0.00176026)
(0.0632806 -0.000400951 0.00229221)
(0.072825 -0.000227783 0.00303477)
(0.0714166 -4.68171e-05 1.69803e-05)
(0.0710893 0.000435659 -0.00235041)
(0.0732482 0.000816403 -0.00362202)
(0.0748795 0.000835638 -0.00632684)
(0.0750822 0.00046058 -0.0102624)
(0.0780286 -3.49706e-05 -0.00946466)
(0.0827002 -0.000818747 -0.00177364)
(0.0830917 -0.00236643 0.00569821)
(0.0800704 -0.00448155 0.00964347)
(0.084093 -0.00474279 0.0134212)
(0.0970324 -0.0022114 0.0125684)
(0.103112 6.70503e-05 0.00245486)
(0.0969223 0.00127161 -0.00821929)
(0.0901037 0.00169235 -0.00888805)
(0.0881491 0.00198839 -0.00243879)
(0.0883932 0.00205822 0.00139232)
(0.0899319 0.00184514 -0.000322967)
(0.090469 0.00166852 -0.00226663)
(0.0878142 0.00145036 -0.00100358)
(0.0837464 0.00159203 0.00313158)
(0.081025 0.00262099 0.00820773)
(0.0818179 0.00321904 0.010138)
(0.0861514 0.00231084 0.00699923)
(0.0912143 0.000870881 0.00154135)
(0.09559 0.000477669 -0.00231255)
(0.101146 0.000992866 -0.00149116)
(0.107357 0.000762244 0.00391316)
(0.111138 -0.000724205 0.00921957)
(0.114697 -0.0018874 0.0100448)
(0.121276 -0.00121294 0.00784057)
(0.118262 -0.000397018 0.00568492)
(0.0986697 -0.000258992 0.00227557)
(0.0793204 0.00048165 -0.00272856)
(0.0705723 0.00171493 -0.00591665)
(0.0687478 0.00172187 -0.00626738)
(0.0689705 0.000809664 -0.00465008)
(0.0696964 5.71274e-05 -0.00170628)
(0.071319 -0.000228404 0.0017374)
(0.0729518 -0.000262783 0.00395212)
(0.0829512 -7.33851e-05 0.00547714)
(0.0805585 0.000448572 0.00204622)
(0.0786866 0.00121132 -0.00222306)
(0.0791694 0.00163307 -0.00434926)
(0.0814616 0.00175296 -0.00608578)
(0.0825323 0.00160671 -0.00968585)
(0.0835873 0.000970411 -0.0112595)
(0.0877058 0.000198082 -0.00617925)
(0.0903495 -0.000798527 0.00137375)
(0.0871885 -0.00307515 0.00564294)
(0.0840151 -0.00558031 0.00955351)
(0.092052 -0.0045973 0.0138572)
(0.104617 -0.00112201 0.00951799)
(0.106783 0.00158738 -0.00333293)
(0.100086 0.00303551 -0.0119792)
(0.0949425 0.00359606 -0.00929611)
(0.0933877 0.00347552 -0.00271302)
(0.0941136 0.0029784 -0.000603023)
(0.0960901 0.0027642 -0.00261535)
(0.0966965 0.00251648 -0.00426065)
(0.0949779 0.00216563 -0.00166467)
(0.0921105 0.00280284 0.00521546)
(0.0910915 0.00355078 0.0115558)
(0.0944333 0.00307327 0.0131807)
(0.100356 0.00159747 0.00925593)
(0.104751 0.000239991 0.00234455)
(0.108626 -0.000131339 -0.00170766)
(0.114548 -4.13348e-05 4.18928e-06)
(0.119774 -0.000709823 0.00346439)
(0.121525 -0.00236667 0.00503559)
(0.126269 -0.00261444 0.00628203)
(0.132641 -0.000293097 0.00826937)
(0.121998 0.00182311 0.00663484)
(0.0990007 0.00251773 -0.00024512)
(0.0841603 0.00284615 -0.00642296)
(0.0807878 0.0024069 -0.00841961)
(0.0824126 0.00127844 -0.00758765)
(0.0841571 0.000190602 -0.00452688)
(0.0847902 -0.000382448 0.00037239)
(0.0846354 -0.000369795 0.00480016)
(0.0968762 8.35002e-05 0.00751725)
(0.09134 0.000508544 0.00526263)
(0.0875356 0.00177968 -0.000495836)
(0.0861438 0.00271485 -0.0052098)
(0.0865609 0.00259881 -0.00716887)
(0.0875584 0.00228731 -0.00872794)
(0.0888588 0.00181557 -0.0100901)
(0.0923331 0.00111635 -0.00751153)
(0.096651 0.000556568 -0.00136506)
(0.0958351 -0.000820247 0.00350542)
(0.0894897 -0.00366989 0.00682959)
(0.0876357 -0.00526999 0.0111149)
(0.0979026 -0.00296775 0.012024)
(0.109361 0.000724436 0.00307893)
(0.110644 0.00390811 -0.0103091)
(0.105514 0.00548255 -0.0156208)
(0.100944 0.00526549 -0.0114133)
(0.0989764 0.00431673 -0.0060441)
(0.09969 0.00384274 -0.00473775)
(0.100972 0.00354911 -0.00694494)
(0.10158 0.00317492 -0.00733543)
(0.101172 0.00338698 -0.00150522)
(0.100873 0.00356127 0.00731156)
(0.103251 0.0028137 0.0137794)
(0.109023 0.00179865 0.0148394)
(0.114272 0.000676603 0.00947866)
(0.117 -0.000536367 0.0027879)
(0.119967 -0.00119962 0.00122721)
(0.124626 -0.0013859 0.00240242)
(0.128188 -0.0022442 0.0014179)
(0.12944 -0.00339306 0.000886173)
(0.133825 -0.00193546 0.00514386)
(0.133455 0.00199026 0.00888446)
(0.119088 0.00470898 0.00471727)
(0.102708 0.0048397 -0.00350405)
(0.0954925 0.00351209 -0.00910751)
(0.0961479 0.00199345 -0.0112445)
(0.0998448 0.000728636 -0.00975899)
(0.102055 -5.59271e-05 -0.00380766)
(0.101161 -8.94772e-05 0.00377918)
(0.115323 0.000945113 0.00680219)
(0.107332 0.000596756 0.00863831)
(0.0993629 0.0016982 0.00383652)
(0.0955146 0.00353762 -0.00322771)
(0.0941815 0.00363317 -0.00815876)
(0.093167 0.00275409 -0.0104392)
(0.0929708 0.00229752 -0.0108132)
(0.0956603 0.00204002 -0.0080132)
(0.100553 0.0016271 -0.00278893)
(0.102513 0.000786143 0.0017287)
(0.0979427 -0.00126062 0.00562649)
(0.090797 -0.00357374 0.0104771)
(0.0916887 -0.00345449 0.014034)
(0.103822 -0.000273014 0.0102012)
(0.115008 0.0038918 -0.00285407)
(0.116855 0.0067598 -0.0153731)
(0.112315 0.00699914 -0.0183015)
(0.106877 0.00584984 -0.0139497)
(0.104604 0.00505717 -0.00912808)
(0.104791 0.00451876 -0.00892915)
(0.105481 0.00400102 -0.0112357)
(0.106546 0.00414795 -0.00892271)
(0.108047 0.00405579 -0.00124969)
(0.11077 0.00266845 0.0072262)
(0.115962 0.00133085 0.0128954)
(0.121235 0.000874537 0.0120108)
(0.123353 0.000132727 0.00608667)
(0.1237 -0.00103888 0.00290633)
(0.125354 -0.00176931 0.00383455)
(0.130747 -0.00246096 0.0031823)
(0.13545 -0.00363954 4.62848e-05)
(0.13687 -0.00316687 0.000628251)
(0.135609 0.000838247 0.00660993)
(0.12948 0.00504035 0.00872102)
(0.120649 0.00583567 0.00320517)
(0.113204 0.00403645 -0.0044103)
(0.109797 0.0022118 -0.0106735)
(0.111824 0.00118955 -0.0141704)
(0.116228 0.000753345 -0.0112037)
(0.118436 0.000871738 -0.00180905)
(0.130787 0.00163975 0.00150635)
(0.126265 0.00151038 0.00870985)
(0.115092 0.00197476 0.00817518)
(0.106994 0.00371872 0.00165153)
(0.104251 0.00422728 -0.00576373)
(0.101858 0.00332811 -0.0109654)
(0.0990265 0.00289407 -0.0126422)
(0.0993541 0.00300845 -0.00978669)
(0.10324 0.00275648 -0.00449469)
(0.106467 0.00219502 -0.000423779)
(0.105364 0.00106708 0.00263156)
(0.0994709 -0.00130454 0.00758536)
(0.0934595 -0.00328222 0.0144084)
(0.0976088 -0.00195447 0.0181281)
(0.111421 0.00226481 0.0114889)
(0.122854 0.00627708 -0.00322945)
(0.12449 0.00767688 -0.0148472)
(0.117934 0.00713767 -0.0177672)
(0.111661 0.00654543 -0.0142998)
(0.109932 0.00591181 -0.011551)
(0.110251 0.0048598 -0.0126758)
(0.11111 0.00425379 -0.0126484)
(0.11234 0.00380323 -0.00828852)
(0.11424 0.00232904 -0.00138271)
(0.118379 0.000928492 0.00568045)
(0.123817 0.000817749 0.00879712)
(0.126636 0.000966315 0.00594121)
(0.126263 8.43374e-05 0.00312736)
(0.124608 -0.00128513 0.00425204)
(0.128392 -0.00246046 0.00540194)
(0.137607 -0.00335991 0.00312561)
(0.142673 -0.00323009 0.000692253)
(0.139879 -0.000562755 0.00422121)
(0.134208 0.00304238 0.00918604)
(0.129268 0.00454182 0.00729334)
(0.123228 0.00393352 0.00107743)
(0.116225 0.0025166 -0.00494863)
(0.113238 0.00104564 -0.0105565)
(0.117241 0.000299169 -0.0131853)
(0.125656 0.000761842 -0.00846152)
(0.131482 -0.000404377 -0.00286059)
(0.137992 0.00124481 0.00570496)
(0.133314 0.00277451 0.0101903)
(0.122161 0.0040825 0.00699851)
(0.1137 0.00427262 -0.000732552)
(0.108686 0.0036628 -0.00787896)
(0.104673 0.00345245 -0.0110499)
(0.103101 0.00384734 -0.00894406)
(0.105001 0.00376615 -0.00422297)
(0.107776 0.00335085 -0.000925394)
(0.11026 0.00336993 0.000589519)
(0.110757 0.00219051 0.00279785)
(0.10609 -0.00120526 0.00863928)
(0.101437 -0.00396363 0.0174227)
(0.106695 -0.0020328 0.0205952)
(0.119644 0.00262321 0.0121118)
(0.129319 0.00601598 -0.00193118)
(0.128671 0.00732029 -0.012467)
(0.122347 0.00770323 -0.0149376)
(0.117903 0.00734387 -0.013037)
(0.115763 0.00599372 -0.0129629)
(0.114201 0.00424154 -0.0136211)
(0.112857 0.00252713 -0.0118275)
(0.112973 0.000685589 -0.00703586)
(0.115962 -0.000367047 -0.000571345)
(0.12148 0.000244516 0.00399844)
(0.126671 0.0015589 0.00385091)
(0.12856 0.00166004 0.00253904)
(0.125519 -3.69529e-05 0.00430765)
(0.124816 -0.00262192 0.00693195)
(0.134732 -0.00393916 0.00610451)
(0.146867 -0.00303929 0.00287896)
(0.147155 -0.000571637 0.00418125)
(0.137227 0.00206721 0.00905731)
(0.128207 0.00372227 0.00911254)
(0.122928 0.00440803 0.00419283)
(0.117783 0.00384279 -0.000808863)
(0.113647 0.00184399 -0.00501031)
(0.11397 -0.000543925 -0.00844211)
(0.120769 -0.0015162 -0.00854529)
(0.126049 -0.00418939 -0.00224389)
(0.134151 -0.00187583 0.00233848)
(0.139991 0.00229373 0.0082368)
(0.139749 0.00530713 0.0107589)
(0.133097 0.00552188 0.00672199)
(0.123632 0.00450829 -0.00142091)
(0.115054 0.00402432 -0.00736308)
(0.109714 0.00441883 -0.00675074)
(0.107963 0.00460109 -0.00194317)
(0.107509 0.00412086 0.0013529)
(0.109188 0.00399647 0.00146268)
(0.114603 0.00408198 0.000768736)
(0.118582 0.00241399 0.00260313)
(0.115906 -0.00180915 0.0096496)
(0.111909 -0.00388761 0.0174911)
(0.115627 -0.00129946 0.0168225)
(0.124839 0.00262724 0.00674145)
(0.130124 0.00570418 -0.00510156)
(0.129065 0.00781857 -0.0105624)
(0.125976 0.00878219 -0.0103859)
(0.122886 0.00818315 -0.0109968)
(0.119196 0.00605506 -0.0128621)
(0.11477 0.00302939 -0.0134468)
(0.112338 0.000272147 -0.0111644)
(0.113659 -0.000953019 -0.0057177)
(0.118054 -0.000152364 -0.000186432)
(0.124226 0.00174397 0.00200782)
(0.129355 0.0029374 0.0018628)
(0.128596 0.00176252 0.00293697)
(0.124634 -0.00194799 0.00539956)
(0.128661 -0.0052471 0.00630739)
(0.143145 -0.00451618 0.00416554)
(0.151928 -0.000672329 0.00422795)
(0.144287 0.00288329 0.00849037)
(0.130571 0.00458522 0.0100672)
(0.123264 0.00499095 0.00675089)
(0.121057 0.00456616 0.0023533)
(0.118992 0.00317107 -0.000907549)
(0.117805 0.000301055 -0.0027644)
(0.119887 -0.00306032 -0.00362416)
(0.125617 -0.00567393 6.95305e-05)
(0.127663 -0.00534044 0.00123652)
(0.13599 -0.00161523 0.00402485)
(0.147719 0.00228425 0.008075)
(0.150567 0.00451972 0.0085562)
(0.140215 0.005519 0.00344443)
(0.125105 0.00589338 -0.00304413)
(0.114302 0.00590952 -0.00512884)
(0.109977 0.0054462 -0.00201831)
(0.108576 0.00475228 0.00233754)
(0.109211 0.00424104 0.00373471)
(0.113294 0.00401489 0.00226084)
(0.118216 0.00323873 0.00126191)
(0.120475 0.000579796 0.00401098)
(0.118462 -0.00221803 0.010288)
(0.116533 -0.00184623 0.0138186)
(0.118969 0.00103755 0.00900865)
(0.122697 0.00412107 -0.00132941)
(0.126514 0.00657893 -0.00810223)
(0.129482 0.00846755 -0.00820185)
(0.129076 0.00967155 -0.00731979)
(0.126232 0.0088149 -0.00857903)
(0.12218 0.00555391 -0.0108505)
(0.11842 0.00188784 -0.0116295)
(0.116967 0.000103467 -0.00870099)
(0.118507 0.000488286 -0.00389564)
(0.122789 0.0018204 -0.000780711)
(0.128194 0.00340372 0.000157883)
(0.129912 0.00337242 0.000695418)
(0.127075 0.000187284 0.0014269)
(0.126087 -0.00464191 0.00188288)
(0.134255 -0.00596728 0.00155594)
(0.146762 -0.00182577 0.00238453)
(0.150575 0.00318951 0.00655229)
(0.142817 0.00544791 0.00939017)
(0.133206 0.0054266 0.00773838)
(0.128114 0.00487988 0.00408855)
(0.126855 0.00414159 0.000750715)
(0.126916 0.00200025 -0.000907359)
(0.126308 -0.00209451 -0.000816533)
(0.132449 -0.00500537 0.00103851)
(0.129932 -0.00743587 0.00267327)
(0.133261 -0.00605101 0.00291676)
(0.145149 -0.00241277 0.00373204)
(0.153026 0.00200633 0.00449415)
(0.146046 0.00581683 0.0037959)
(0.132117 0.00714673 0.00148678)
(0.123106 0.00569493 -0.00153916)
(0.120944 0.00301131 -0.00280901)
(0.119599 0.00124601 -0.000423036)
(0.117023 0.00113285 0.00356009)
(0.116966 0.00214943 0.00480377)
(0.118464 0.00294936 0.00317675)
(0.119054 0.00194903 0.00167004)
(0.118314 -8.32601e-05 0.00322182)
(0.116656 -0.000595555 0.00707741)
(0.116608 0.000988976 0.00787481)
(0.117978 0.00327049 0.00180806)
(0.121261 0.00533915 -0.00587002)
(0.126443 0.00795899 -0.00823566)
(0.130054 0.0110777 -0.00747254)
(0.130686 0.0119281 -0.00799397)
(0.128701 0.00920831 -0.00998858)
(0.125812 0.00505226 -0.0114582)
(0.123827 0.00258732 -0.0100852)
(0.123252 0.00231976 -0.00657362)
(0.124337 0.00246827 -0.00353103)
(0.127601 0.00303289 -0.00215654)
(0.13063 0.00374869 -0.00136568)
(0.130116 0.00223974 -0.00055915)
(0.127232 -0.00237595 -0.000743855)
(0.128567 -0.00596358 -0.00212071)
(0.138964 -0.00376321 -0.00197854)
(0.151188 0.00171221 0.00236442)
(0.152339 0.00574352 0.00743264)
(0.143302 0.00676973 0.00857853)
(0.134893 0.00585458 0.00612371)
(0.132059 0.00432671 0.00226416)
(0.13336 0.0026321 -0.000850555)
(0.134374 -0.000454303 -0.0011423)
(0.139149 -0.00312155 0.000295864)
(0.136721 -0.0062664 0.00365315)
(0.135541 -0.00702813 0.00486174)
(0.138637 -0.00409083 0.00438069)
(0.141335 0.00175726 0.00367493)
(0.138162 0.00758939 0.00362892)
(0.133389 0.0105162 0.00364383)
(0.13403 0.00927503 0.0014985)
(0.140469 0.00437714 -0.00199294)
(0.144408 -0.000996391 -0.00272572)
(0.13944 -0.00334428 0.000719444)
(0.130852 -0.00201366 0.00375792)
(0.124801 0.000507566 0.00314626)
(0.120947 0.0013465 0.000637345)
(0.118101 0.000546358 -0.00101252)
(0.116114 0.000508201 -0.000833035)
(0.1158 0.00205166 -0.000126415)
(0.116365 0.00393461 -0.00280868)
(0.118358 0.00504356 -0.00863582)
(0.122123 0.00681976 -0.013088)
(0.126294 0.00997207 -0.0144054)
(0.130364 0.0118193 -0.0129027)
(0.132736 0.0104612 -0.0104912)
(0.133066 0.0072384 -0.00970252)
(0.132308 0.00518808 -0.00913417)
(0.13117 0.00529296 -0.00706264)
(0.13008 0.00534852 -0.00431483)
(0.130353 0.00436059 -0.0021471)
(0.132456 0.0038556 -0.000297486)
(0.134261 0.003367 0.00206813)
(0.133475 0.000684112 0.00250813)
(0.131296 -0.00324657 -0.00141968)
(0.133738 -0.00435981 -0.00576078)
(0.143852 -0.00142439 -0.00434876)
(0.152493 0.00364076 0.00163789)
(0.151285 0.0079663 0.00580179)
(0.144678 0.00862988 0.00568154)
(0.139563 0.0059904 0.0030057)
(0.138257 0.00275527 -8.70833e-05)
(0.139214 8.0154e-05 -0.00163944)
(0.14266 -0.00309139 -0.000935061)
(0.142477 -0.00467531 0.00288161)
(0.137703 -0.00486068 0.00559591)
(0.131899 -0.0022649 0.00618628)
(0.127853 0.00264748 0.00625555)
(0.126035 0.00657972 0.00585794)
(0.127324 0.0077723 0.00369174)
(0.132511 0.00649478 -0.000783719)
(0.141323 0.00339247 -0.00493805)
(0.149693 -0.000435792 -0.00499732)
(0.149918 -0.00330817 -0.00162499)
(0.141186 -0.00355769 0.00031838)
(0.130262 -0.00123845 -0.000985246)
(0.121922 0.00109827 -0.00186714)
(0.117126 0.00169631 -0.00113808)
(0.114835 0.00157212 -0.00160505)
(0.114029 0.0024192 -0.00292527)
(0.114093 0.00387147 -0.00440624)
(0.116454 0.00450997 -0.00604133)
(0.121609 0.00578862 -0.00743383)
(0.127424 0.00887662 -0.00851165)
(0.132374 0.0113636 -0.00771398)
(0.134613 0.0108409 -0.00474516)
(0.134739 0.00833171 -0.0032741)
(0.134128 0.00684412 -0.00398101)
(0.13305 0.00769918 -0.00430534)
(0.132218 0.00887819 -0.00232471)
(0.1321 0.00798748 0.00168932)
(0.132926 0.00581428 0.00571261)
(0.135751 0.00424273 0.00912052)
(0.138821 0.00250932 0.00997436)
(0.138197 -0.000401284 0.00486711)
(0.134743 -0.00258437 -0.00366733)
(0.135366 -0.00195139 -0.00801745)
(0.14258 0.00143435 -0.00603009)
(0.149977 0.00653497 -0.00216578)
(0.150854 0.00994967 -0.000178394)
(0.145791 0.00913016 2.78529e-05)
(0.140661 0.00489639 -0.000657476)
(0.139953 9.95387e-05 -0.00190032)
(0.144172 -0.00413526 -0.00013163)
(0.143783 -0.00438162 0.00114056)
(0.139315 -0.00221293 0.00339783)
(0.131724 0.000464375 0.00600552)
(0.125617 0.00273896 0.00752874)
(0.12325 0.00386645 0.00570335)
(0.123829 0.0044728 0.000238806)
(0.126182 0.00474459 -0.0064273)
(0.131141 0.00407933 -0.0107007)
(0.139808 0.0023755 -0.00987579)
(0.147017 -0.000349715 -0.00513796)
(0.146151 -0.00320929 -0.00179666)
(0.137701 -0.00404664 -0.00301122)
(0.127679 -0.00205678 -0.00482807)
(0.121629 0.00150034 -0.00262297)
(0.119939 0.00426475 0.00146595)
(0.120148 0.00601726 0.00356121)
(0.12073 0.00703469 0.00314087)
(0.122114 0.00691609 0.00267432)
(0.125143 0.00685377 0.00409963)
(0.129494 0.00784583 0.00586241)
(0.134478 0.00851082 0.00630343)
(0.136307 0.00796646 0.00512925)
(0.13413 0.00716786 0.00195003)
(0.131963 0.00769273 -0.000866429)
(0.132292 0.0101062 -0.000592165)
(0.134453 0.012693 0.00279911)
(0.136102 0.0126455 0.00728595)
(0.13573 0.00938014 0.0100383)
(0.136292 0.00562223 0.011379)
(0.14009 0.00403403 0.0122061)
(0.14352 0.00319317 0.00957626)
(0.141764 0.00143582 0.0020732)
(0.13711 -1.26179e-05 -0.00510647)
(0.13617 0.00047894 -0.00743745)
(0.140684 0.00395025 -0.00638329)
(0.145595 0.00870283 -0.00547102)
(0.147099 0.0107234 -0.00500776)
(0.145776 0.0074249 -0.00297664)
(0.144004 0.000681759 -0.000852342)
(0.14475 -0.00413214 -0.00177478)
(0.142682 -0.00461756 -0.000646544)
(0.139608 -0.00174535 0.000832164)
(0.136489 0.00205407 0.00328488)
(0.13356 0.00484286 0.00494801)
(0.130557 0.00586254 0.00318166)
(0.127399 0.0055827 -0.00227597)
(0.125282 0.00428503 -0.00919327)
(0.126158 0.00199915 -0.0145527)
(0.132771 -0.000462683 -0.0157016)
(0.143123 -0.00170676 -0.011524)
(0.149047 -0.00200822 -0.00579187)
(0.14478 -0.0022588 -0.00353726)
(0.133534 -0.00188068 -0.00417935)
(0.123363 0.000201714 -0.00338911)
(0.118723 0.00293396 -0.000281975)
(0.119062 0.00527848 0.00281573)
(0.121686 0.00664903 0.00414817)
(0.125264 0.00648264 0.00445555)
(0.130014 0.00558243 0.00630541)
(0.13419 0.00550175 0.00935351)
(0.136451 0.00663686 0.0103784)
(0.135218 0.00824919 0.00809358)
(0.131491 0.00896401 0.00379474)
(0.129631 0.00889501 0.00093534)
(0.130927 0.00958673 0.00177749)
(0.13379 0.0114359 0.00463785)
(0.136572 0.0124249 0.00697011)
(0.137848 0.00963875 0.0074955)
(0.138425 0.0040013 0.0079394)
(0.14108 0.000339614 0.0101019)
(0.146269 0.000804573 0.0111028)
(0.149358 0.00282735 0.00718564)
(0.146249 0.00370502 0.000271781)
(0.139586 0.00336895 -0.00523683)
(0.135528 0.00343356 -0.00727128)
(0.135907 0.00457921 -0.00701846)
(0.138737 0.00542141 -0.00661766)
(0.142256 0.00398142 -0.00569676)
(0.14455 -0.000159564 -0.00366008)
(0.145645 -0.00814421 -0.00386675)
(0.146381 -0.00588374 -0.00041849)
(0.143278 -0.00172824 0.000852774)
(0.138791 0.00234038 0.000388357)
(0.135572 0.0055919 -0.000502317)
(0.135345 0.00729505 -0.00130677)
(0.137458 0.00708092 -0.00256564)
(0.139833 0.00501829 -0.00528202)
(0.14121 0.00109512 -0.00965471)
(0.142158 -0.00379938 -0.0145851)
(0.144645 -0.00720872 -0.0162457)
(0.149263 -0.00734966 -0.0116695)
(0.152125 -0.00504911 -0.00412209)
(0.149174 -0.00212719 0.000718539)
(0.141526 0.000491355 0.00120988)
(0.13372 0.00245276 -0.000687076)
(0.129426 0.00364477 -0.0029606)
(0.128733 0.0034128 -0.00396349)
(0.129651 0.00186267 -0.00322878)
(0.131054 0.000926405 -0.00082018)
(0.131346 0.00199676 0.0023109)
(0.130155 0.00442485 0.00422971)
(0.128232 0.00566562 0.00435751)
(0.12659 0.00507368 0.00270361)
(0.127294 0.0049573 0.000603407)
(0.130545 0.00729757 0.000449568)
(0.134768 0.0116373 0.00205009)
(0.138762 0.0140976 0.00367612)
(0.141478 0.0106805 0.00416518)
(0.141864 0.00326004 0.00355237)
(0.141572 -0.00219272 0.00388569)
(0.143975 -0.00227304 0.00544556)
(0.148785 0.00155637 0.00550929)
(0.151042 0.00550867 0.00257292)
(0.148201 0.00728198 -0.00252064)
(0.143213 0.00690837 -0.00700273)
(0.139891 0.00512422 -0.0088349)
(0.138636 0.002041 -0.00946898)
(0.139356 -0.0024264 -0.0095)
(0.142088 -0.00668718 -0.00762626)
(0.143315 -0.0068217 -0.00689288)
(0.143278 -0.00553403 -0.0029468)
(0.143128 -0.00182552 0.00114763)
(0.142387 0.00190435 0.00402018)
(0.140957 0.00429341 0.00421018)
(0.140289 0.00491026 0.00176375)
(0.141927 0.00426693 -0.00182038)
(0.146028 0.00296977 -0.00481933)
(0.151605 0.000265815 -0.00671674)
(0.156326 -0.00419529 -0.0090768)
(0.158364 -0.00811134 -0.0122306)
(0.158184 -0.008322 -0.0131369)
(0.156615 -0.00485409 -0.00936815)
(0.153687 -0.00065764 -0.00283729)
(0.151085 0.00077591 0.00233023)
(0.150918 -0.00139453 0.00348264)
(0.152701 -0.00400273 0.000750244)
(0.15388 -0.00395497 -0.00321648)
(0.151842 -0.00134846 -0.00581456)
(0.146446 0.00154945 -0.0059487)
(0.139679 0.00278546 -0.00362419)
(0.134653 0.00235956 -0.00016851)
(0.133038 0.000141786 0.00264296)
(0.133213 -0.00254934 0.00290805)
(0.133896 -0.00265799 0.00035455)
(0.1354 0.00128813 -0.00211368)
(0.138117 0.00734186 -0.00179535)
(0.141978 0.0108202 0.00144533)
(0.145717 0.00833296 0.00504634)
(0.146896 0.00226185 0.00551794)
(0.145286 -0.00240703 0.00341284)
(0.143388 -0.00303942 0.00170645)
(0.142977 -2.98719e-05 0.00141641)
(0.143547 0.00367462 0.00149611)
(0.144466 0.00596946 -4.88219e-06)
(0.145608 0.00681207 -0.00403168)
(0.146934 0.00624769 -0.00842569)
(0.147232 0.00402881 -0.0107178)
(0.146012 -0.000131685 -0.0108136)
(0.14423 -0.00458107 -0.00954089)
(0.147832 -0.00434315 -0.0106988)
(0.145335 -0.0034543 -0.00921637)
(0.142737 -0.000237537 -0.00453107)
(0.140886 0.00344638 0.00164122)
(0.140554 0.00599531 0.00561612)
(0.142083 0.006635 0.00519572)
(0.14436 0.00510616 0.00111752)
(0.146215 0.00207489 -0.00388026)
(0.148487 -0.00191961 -0.00676885)
(0.151931 -0.00618812 -0.00684096)
(0.155666 -0.00918925 -0.00597454)
(0.158269 -0.00900691 -0.00573962)
(0.158896 -0.00556922 -0.00575968)
(0.158191 -0.00127582 -0.00501897)
(0.157604 0.000551375 -0.0031465)
(0.157458 -0.00155206 -0.000654548)
(0.156412 -0.00523537 0.000832182)
(0.153665 -0.00699799 0.000307156)
(0.150176 -0.00542605 -0.00209449)
(0.147825 -0.0021462 -0.00552451)
(0.147106 0.000550794 -0.00766957)
(0.14766 0.00180958 -0.00700989)
(0.149499 0.00120196 -0.00429425)
(0.150954 -0.000505563 -0.0022029)
(0.150213 -0.00140499 -0.00260942)
(0.1479 -0.000383324 -0.0035448)
(0.146072 0.00227797 -0.00230081)
(0.146124 0.00457835 0.00131462)
(0.147338 0.00453084 0.0045648)
(0.147148 0.0029682 0.004809)
(0.145215 0.00151585 0.00224925)
(0.143795 0.00084867 -0.000684644)
(0.144289 0.00124677 -0.00211743)
(0.146284 0.00186184 -0.00173832)
(0.148968 0.00203256 -0.000941101)
(0.150789 0.00184631 -0.00166248)
(0.151362 0.00140134 -0.0038225)
(0.151347 0.000814575 -0.00593067)
(0.150822 -0.000598767 -0.00775777)
(0.149675 -0.00285223 -0.00961735)
(0.146551 -0.00328878 -0.00510988)
(0.147898 -0.00312246 -0.00545708)
(0.149316 -0.00124984 -0.00498237)
(0.150375 0.00085479 -0.00335414)
(0.150355 0.00236728 -0.0010565)
(0.149415 0.00326294 0.0010137)
(0.148518 0.00353181 0.00175403)
(0.148021 0.00268739 0.000727972)
(0.148125 4.16179e-05 -0.00117613)
(0.148898 -0.00399361 -0.00226647)