/*--------------------------------*- C++ -*----------------------------------*\
| =========                 |                                                 |
| \\      /  F ield         | OpenFOAM: The Open Source CFD Toolbox           |
|  \\    /   O peration     | Version:  2.3.0                                 |
|   \\  /    A nd           | Web:      www.OpenFOAM.org                      |
|    \\/     M anipulation  |                                                 |
\*---------------------------------------------------------------------------*/
FoamFile
{
    version     2.0;
    format      ascii;
    class       volVectorField;
    location    "200";
    object      U_0;
}
// * * * * * * * * * * * * * * * * * * * * * * * * * * * * * * * * * * * * * //

dimensions      [0 1 -1 0 0 0 0];

internalField   nonuniform List<vector> 
90000
(
(0.00563786 6.93422e-06 -0.00020447)
(0.00564638 7.56516e-06 -0.000181412)
(0.00564868 8.5174e-06 -0.000157388)
(0.00564022 7.23206e-06 -0.000147774)
(0.00564636 4.60821e-06 -0.00015832)
(0.00565134 2.39425e-06 -0.000183857)
(0.00567667 -7.85951e-07 -0.000219464)
(0.00570671 -2.88117e-06 -0.000251465)
(0.00574228 -4.05983e-06 -0.000276053)
(0.00576476 -4.56869e-06 -0.000276013)
(0.00577618 -4.01191e-06 -0.000260349)
(0.00577503 -4.12523e-06 -0.000238396)
(0.00577115 -3.60338e-06 -0.00020424)
(0.00575369 -3.34535e-06 -0.000169469)
(0.00572792 -2.73118e-06 -0.000136642)
(0.00567449 -1.47608e-06 -0.000115166)
(0.00561403 -6.11624e-07 -0.00011528)
(0.00554057 9.28729e-07 -0.00011924)
(0.00547413 1.31746e-06 -0.000124164)
(0.00540624 1.52069e-06 -0.000116284)
(0.0053473 1.45866e-06 -9.85082e-05)
(0.00529002 6.41718e-07 -8.41103e-05)
(0.00524823 4.44932e-07 -7.7863e-05)
(0.00520256 2.04013e-07 -8.12222e-05)
(0.00517221 -3.01449e-07 -8.49587e-05)
(0.00514296 -7.85744e-07 -7.46476e-05)
(0.00512488 -1.58238e-06 -5.97722e-05)
(0.00510364 -2.51943e-06 -4.78562e-05)
(0.00509041 -2.93042e-06 -5.03306e-05)
(0.00507165 -2.63051e-06 -5.83543e-05)
(0.00507065 -1.18267e-06 -5.80077e-05)
(0.00507989 -5.15956e-07 -2.67287e-05)
(0.00509852 1.84324e-07 3.18448e-05)
(0.00511806 -1.04597e-06 9.97145e-05)
(0.0051422 -1.87584e-06 0.000154752)
(0.00515531 -1.90086e-06 0.000158324)
(0.00518746 -1.65492e-06 0.000110372)
(0.00522067 -7.63536e-07 3.66388e-05)
(0.00524567 1.94587e-07 -5.89598e-05)
(0.0052617 3.03061e-06 -0.000163205)
(0.00530156 5.62956e-06 -0.000248587)
(0.00536056 7.5029e-06 -0.000243821)
(0.00543644 6.56969e-06 -0.000155111)
(0.00548038 6.45284e-06 -4.63559e-05)
(0.00549762 4.80257e-06 1.76092e-05)
(0.00549891 2.7632e-06 1.06616e-05)
(0.00551281 2.3189e-06 -4.92992e-05)
(0.00553221 1.45363e-06 -0.000122775)
(0.00557653 2.60517e-06 -0.000177312)
(0.0056117 4.75143e-06 -0.000204449)
(0.0171875 4.30822e-05 -0.000548424)
(0.0172485 4.39474e-05 -0.00050321)
(0.0173154 4.43947e-05 -0.000468913)
(0.0173624 3.52823e-05 -0.000460215)
(0.0174365 2.2339e-05 -0.000486527)
(0.0174892 1.05733e-05 -0.000532431)
(0.0175686 -3.44386e-06 -0.000586836)
(0.0176244 -1.21069e-05 -0.000627099)
(0.0176802 -1.67688e-05 -0.000652487)
(0.0176902 -1.83787e-05 -0.000632373)
(0.017683 -1.59644e-05 -0.000593341)
(0.0176439 -1.55465e-05 -0.0005406)
(0.0175953 -1.26309e-05 -0.000470513)
(0.0175141 -1.02874e-05 -0.000406145)
(0.0174231 -6.96369e-06 -0.000346889)
(0.0172791 -1.77561e-06 -0.000310687)
(0.017138 1.85404e-06 -0.000306896)
(0.0169675 6.85859e-06 -0.00030412)
(0.0168158 8.2008e-06 -0.000305636)
(0.0166461 9.33481e-06 -0.000288401)
(0.0164998 9.54616e-06 -0.00026586)
(0.0163382 7.75511e-06 -0.000252232)
(0.0162068 7.71764e-06 -0.000249303)
(0.0160598 7.15721e-06 -0.000254717)
(0.0159474 4.96762e-06 -0.000253022)
(0.015825 2.74045e-06 -0.000226677)
(0.0157329 -1.37773e-07 -0.000199331)
(0.0156311 -2.71311e-06 -0.000175607)
(0.0155621 -2.48991e-06 -0.00017095)
(0.0154899 2.06733e-06 -0.000166718)
(0.0154723 9.50338e-06 -0.00014411)
(0.0154742 1.3034e-05 -7.57908e-05)
(0.0155103 1.57165e-05 1.21374e-05)
(0.0155528 1.24712e-05 8.99374e-05)
(0.01562 1.09066e-05 0.000123569)
(0.0156746 1.11422e-05 6.89561e-05)
(0.0157657 1.23504e-05 -5.33067e-05)
(0.0158508 1.76269e-05 -0.000202763)
(0.015938 2.41681e-05 -0.00035929)
(0.0160165 3.57042e-05 -0.000490717)
(0.0161406 4.60467e-05 -0.000563571)
(0.0162798 5.38795e-05 -0.000501449)
(0.0164469 5.16197e-05 -0.00035713)
(0.0165531 4.98826e-05 -0.000221376)
(0.0166495 4.11956e-05 -0.000178914)
(0.0167088 3.10318e-05 -0.000236613)
(0.0167977 2.73982e-05 -0.000356858)
(0.0168808 2.51543e-05 -0.000474836)
(0.0170027 2.87205e-05 -0.000546554)
(0.0170927 3.65063e-05 -0.000568145)
(0.0293045 0.000112258 -0.000907724)
(0.0294445 0.000110155 -0.000842739)
(0.02961 0.000105319 -0.000792205)
(0.0297341 8.07681e-05 -0.000768232)
(0.0298909 5.10653e-05 -0.00078597)
(0.0299983 2.44012e-05 -0.000823757)
(0.030125 -4.26968e-06 -0.000873182)
(0.0301956 -2.125e-05 -0.000904854)
(0.0302662 -3.01625e-05 -0.000926614)
(0.0302594 -3.28386e-05 -0.000896342)
(0.0302391 -2.77815e-05 -0.000849219)
(0.0301713 -2.57118e-05 -0.000785904)
(0.0300965 -1.91813e-05 -0.000699306)
(0.0299766 -1.4003e-05 -0.000619846)
(0.0298614 -7.30368e-06 -0.000540578)
(0.0296741 2.36206e-06 -0.000484492)
(0.0295035 9.37569e-06 -0.000468024)
(0.0292875 1.82448e-05 -0.000451477)
(0.0290965 2.05899e-05 -0.000449085)
(0.028857 2.31904e-05 -0.000429357)
(0.028648 2.4052e-05 -0.000410932)
(0.0283833 2.15932e-05 -0.000404682)
(0.0281481 2.17014e-05 -0.000410703)
(0.027871 2.10815e-05 -0.000424324)
(0.0276319 1.73466e-05 -0.000426674)
(0.0273605 1.38036e-05 -0.000395253)
(0.0271336 9.34018e-06 -0.000363436)
(0.0268909 6.60271e-06 -0.00033206)
(0.026709 1.07001e-05 -0.00032219)
(0.0265269 2.48892e-05 -0.000312229)
(0.0264434 4.35582e-05 -0.000285149)
(0.0263952 5.33794e-05 -0.0002068)
(0.0264136 5.98208e-05 -0.000114551)
(0.0264461 5.63529e-05 -4.19812e-05)
(0.026536 5.61056e-05 -2.65961e-05)
(0.0266165 5.58257e-05 -0.00011275)
(0.0267466 5.63671e-05 -0.000268272)
(0.0268762 6.67991e-05 -0.000448717)
(0.0270231 8.25918e-05 -0.000627771)
(0.0271635 0.000106103 -0.000768238)
(0.0273718 0.000126718 -0.000845637)
(0.0275995 0.000141931 -0.000776936)
(0.0278767 0.000136383 -0.000631289)
(0.0280777 0.000128975 -0.000503198)
(0.02829 0.000108089 -0.000483665)
(0.0284278 8.74667e-05 -0.000569784)
(0.0286071 8.18941e-05 -0.000720849)
(0.0287566 8.2111e-05 -0.000857707)
(0.0289607 8.90462e-05 -0.000932692)
(0.0291163 0.000102912 -0.000945152)
(0.0417495 0.00022186 -0.00132961)
(0.041969 0.00021468 -0.00124028)
(0.0422419 0.000201881 -0.0011654)
(0.0424396 0.000156622 -0.00111152)
(0.0426752 0.000104869 -0.00110616)
(0.0428372 5.95485e-05 -0.00111812)
(0.0430116 1.11714e-05 -0.0011447)
(0.0430982 -1.84206e-05 -0.00115194)
(0.0431984 -3.43074e-05 -0.00115799)
(0.0431906 -4.05389e-05 -0.00111342)
(0.0431833 -3.48445e-05 -0.00105892)
(0.043114 -3.1647e-05 -0.000996625)
(0.0430511 -2.17359e-05 -0.000903139)
(0.0429293 -1.36892e-05 -0.00081942)
(0.0428387 -2.62221e-06 -0.000729003)
(0.0426624 1.15541e-05 -0.000648975)
(0.0425235 2.14516e-05 -0.000615034)
(0.042327 3.36206e-05 -0.000572033)
(0.0421725 3.59024e-05 -0.00055297)
(0.0419312 3.87659e-05 -0.000521304)
(0.0417258 4.05861e-05 -0.000498949)
(0.041412 3.87067e-05 -0.00050009)
(0.0411023 4.01526e-05 -0.000518467)
(0.0407019 4.14823e-05 -0.000550473)
(0.0403168 3.76273e-05 -0.000573685)
(0.0398517 3.35407e-05 -0.000550891)
(0.0394214 2.7068e-05 -0.00052447)
(0.0389543 2.39852e-05 -0.000494149)
(0.0385724 3.33743e-05 -0.000485783)
(0.0381865 5.93572e-05 -0.000474819)
(0.0379477 9.34459e-05 -0.000446434)
(0.0377735 0.000115004 -0.000356479)
(0.0377061 0.000128607 -0.000246529)
(0.0376634 0.000128602 -0.000159868)
(0.0377241 0.000134717 -0.000138762)
(0.0377933 0.000137277 -0.000238916)
(0.0379271 0.000137162 -0.000416806)
(0.0380782 0.000150508 -0.000623082)
(0.0382723 0.00017251 -0.000833871)
(0.0384697 0.000203887 -0.00099834)
(0.0387652 0.000232153 -0.00110027)
(0.0390997 0.000254437 -0.00104192)
(0.039509 0.000244379 -0.000901249)
(0.0398334 0.000231034 -0.000785959)
(0.0401881 0.000199163 -0.000792542)
(0.0404246 0.000171026 -0.00091358)
(0.0407159 0.000169188 -0.00110769)
(0.0409415 0.00017699 -0.00127942)
(0.0412378 0.000188819 -0.00136996)
(0.0414626 0.00021017 -0.00138238)
(0.0542597 0.000383759 -0.00183976)
(0.0545513 0.000372051 -0.00173122)
(0.0549342 0.000352708 -0.00164136)
(0.0552006 0.000284987 -0.00155691)
(0.0554983 0.000206578 -0.00153127)
(0.0556983 0.000139569 -0.00152214)
(0.0559096 6.60387e-05 -0.00151358)
(0.0559931 1.62989e-05 -0.00147582)
(0.0561211 -1.26702e-05 -0.00143847)
(0.0561105 -2.82382e-05 -0.00134794)
(0.0561285 -2.7455e-05 -0.00125669)
(0.0560709 -2.73693e-05 -0.00118452)
(0.0560406 -1.75832e-05 -0.0010784)
(0.0559355 -9.19387e-06 -0.000992423)
(0.055894 6.63589e-06 -0.000909409)
(0.0557584 2.65057e-05 -0.000812944)
(0.0556978 3.98616e-05 -0.000768485)
(0.0555715 5.45658e-05 -0.000690347)
(0.0555326 5.50143e-05 -0.000631042)
(0.0553879 5.49068e-05 -0.000565575)
(0.055295 5.51149e-05 -0.000511769)
(0.0550668 5.4524e-05 -0.000505038)
(0.0548113 5.8302e-05 -0.000526807)
(0.0544002 6.42422e-05 -0.000572368)
(0.0539553 6.33613e-05 -0.000625695)
(0.0533437 6.13537e-05 -0.000626861)
(0.0527077 5.30036e-05 -0.000621568)
(0.0519596 4.67743e-05 -0.000606907)
(0.0512925 6.03442e-05 -0.000613952)
(0.0505949 9.76543e-05 -0.000611514)
(0.0500696 0.000145658 -0.000580139)
(0.0496469 0.000182426 -0.000473328)
(0.0493822 0.00020665 -0.000329385)
(0.0491543 0.000211977 -0.000209011)
(0.0490813 0.000232008 -0.000159922)
(0.0490666 0.000250223 -0.000261477)
(0.0491448 0.000260178 -0.000461355)
(0.0492636 0.000279914 -0.000690248)
(0.049464 0.000304911 -0.000936212)
(0.0496844 0.000333822 -0.00112254)
(0.0500341 0.000354941 -0.0012406)
(0.0504652 0.000373486 -0.00118401)
(0.0509998 0.000348868 -0.00103249)
(0.0514556 0.000323404 -0.000931406)
(0.051971 0.000282366 -0.000985628)
(0.0523298 0.000252764 -0.0011728)
(0.0527764 0.000267392 -0.00145264)
(0.0531192 0.000299402 -0.00170814)
(0.0535456 0.000327253 -0.00185189)
(0.0538616 0.000364888 -0.0018921)
(0.0664281 0.000585583 -0.00238353)
(0.0668332 0.000578811 -0.00227271)
(0.0673622 0.000562281 -0.00219825)
(0.0677354 0.000481657 -0.00210888)
(0.0681097 0.000378475 -0.00207702)
(0.0683382 0.000291939 -0.00208977)
(0.0685729 0.000192344 -0.00207749)
(0.0686052 0.000113354 -0.00199725)
(0.0687285 6.36412e-05 -0.001905)
(0.0686778 3.20679e-05 -0.00173344)
(0.0686946 1.8943e-05 -0.0015471)
(0.0686384 9.28251e-06 -0.00142046)
(0.0686313 1.19101e-05 -0.00126941)
(0.0685248 1.06353e-05 -0.00114794)
(0.0685147 2.51306e-05 -0.00107798)
(0.0683886 4.85035e-05 -0.000978214)
(0.0683912 6.66127e-05 -0.000943721)
(0.0683258 8.5446e-05 -0.000851046)
(0.0684009 8.29328e-05 -0.000733604)
(0.068404 7.75657e-05 -0.000613133)
(0.0684868 7.04202e-05 -0.000490848)
(0.0684646 6.73547e-05 -0.000437161)
(0.0684393 7.12864e-05 -0.000437377)
(0.0682236 8.16976e-05 -0.000465578)
(0.0679503 8.61584e-05 -0.00052333)
(0.0674198 9.10533e-05 -0.000536363)
(0.0667793 8.8101e-05 -0.000559472)
(0.0658782 7.94458e-05 -0.000577038)
(0.0649672 9.29689e-05 -0.000621903)
(0.0639494 0.000141077 -0.00066486)
(0.0630529 0.000195868 -0.000648771)
(0.0622517 0.000243092 -0.000535185)
(0.0616518 0.000279498 -0.000358281)
(0.0610921 0.000286597 -0.000198846)
(0.0607045 0.000318075 -0.000112758)
(0.0604406 0.00036032 -0.000199707)
(0.0603388 0.000400898 -0.000417381)
(0.0603238 0.000450251 -0.000657528)
(0.0604494 0.000496797 -0.000925545)
(0.0606307 0.000527852 -0.00111354)
(0.0609545 0.000520416 -0.00120371)
(0.0614233 0.000506726 -0.00110769)
(0.062025 0.000437913 -0.000895449)
(0.0625597 0.000373067 -0.000773304)
(0.0631964 0.000307369 -0.000887454)
(0.0636333 0.000267285 -0.00117534)
(0.0642249 0.00029931 -0.001589)
(0.0647178 0.000378845 -0.00199813)
(0.0653474 0.000451852 -0.00226175)
(0.065836 0.000535633 -0.0023889)
(0.0774617 0.000732651 -0.00278157)
(0.0780935 0.000770705 -0.0027003)
(0.0788672 0.000778766 -0.00266333)
(0.0794679 0.000713266 -0.00262602)
(0.0800382 0.00060658 -0.00260854)
(0.0803753 0.000516386 -0.00268694)
(0.0807121 0.000409139 -0.0027668)
(0.0806869 0.000301077 -0.00271416)
(0.0807666 0.000220509 -0.00261566)
(0.080641 0.000166249 -0.00239376)
(0.0805934 0.000128059 -0.00207899)
(0.0805099 0.000102071 -0.00183424)
(0.0805285 9.64035e-05 -0.00159157)
(0.0804077 7.66302e-05 -0.00136253)
(0.0804089 7.8993e-05 -0.00126417)
(0.0802424 9.40376e-05 -0.00116102)
(0.0802189 0.000107153 -0.00114498)
(0.0801463 0.000130124 -0.00109593)
(0.0802257 0.000123683 -0.00094258)
(0.0803038 0.000114226 -0.000760549)
(0.0805037 9.96112e-05 -0.000555268)
(0.0806396 9.05854e-05 -0.000407122)
(0.0808625 9.00363e-05 -0.000351153)
(0.0809203 9.79643e-05 -0.000327573)
(0.0809796 0.000101337 -0.000338611)
(0.0807804 0.000105176 -0.00029055)
(0.0804689 0.00010931 -0.000278669)
(0.0798151 0.000112084 -0.000306333)
(0.0790044 0.000128676 -0.000372969)
(0.0779611 0.000191821 -0.000498803)
(0.0768945 0.000254816 -0.000550228)
(0.0757794 0.000301459 -0.000464366)
(0.0748179 0.000347405 -0.000285525)
(0.0738649 0.000354787 -0.000102944)
(0.0730223 0.000388854 -1.01068e-05)
(0.0722854 0.000443816 -0.000110953)
(0.0717609 0.000515644 -0.000374195)
(0.0713975 0.000613583 -0.00063813)
(0.0712732 0.000718693 -0.000912032)
(0.0713259 0.000799361 -0.00107842)
(0.0715429 0.000775173 -0.00107117)
(0.071979 0.000706687 -0.000844712)
(0.0725886 0.000556236 -0.000470562)
(0.0731178 0.000404496 -0.000208972)
(0.0737924 0.000273253 -0.000327544)
(0.0741699 0.000186099 -0.000730875)
(0.0747142 0.000190585 -0.00131066)
(0.0751719 0.0002976 -0.00193751)
(0.0759119 0.000425593 -0.00238999)
(0.0765697 0.000592667 -0.00266261)
(0.0866945 0.000647681 -0.0028215)
(0.0874813 0.000796698 -0.00281643)
(0.0884979 0.000870558 -0.00279756)
(0.0893858 0.000854058 -0.00284158)
(0.0903203 0.00078812 -0.00288003)
(0.0909239 0.000730313 -0.00301445)
(0.0915792 0.000661656 -0.00325313)
(0.0916963 0.000566825 -0.00335494)
(0.0917884 0.000461334 -0.0033598)
(0.0916321 0.000379241 -0.0032195)
(0.0914944 0.000304378 -0.00286908)
(0.0913262 0.000245595 -0.00249597)
(0.091379 0.000232965 -0.00213437)
(0.0913 0.000200435 -0.00172672)
(0.0913645 0.000190882 -0.0014935)
(0.0912406 0.000195734 -0.00135345)
(0.0911713 0.000185426 -0.00132901)
(0.0910521 0.000196187 -0.00137744)
(0.0910411 0.000174723 -0.00128936)
(0.0910521 0.0001533 -0.00108838)
(0.0912502 0.00013692 -0.000839624)
(0.0914052 0.000133419 -0.00059451)
(0.0917291 0.000140425 -0.000457456)
(0.0919191 0.000148849 -0.000370234)
(0.0921595 0.000148369 -0.000326027)
(0.0922029 0.000136819 -0.000172049)
(0.0921852 0.000113564 1.01641e-05)
(0.0919462 0.00011227 8.55785e-05)
(0.0915754 0.000126222 0.00012755)
(0.0909697 0.0002035 2.33825e-05)
(0.0902976 0.000296733 -9.57208e-05)
(0.0893797 0.00035207 -4.06521e-05)
(0.0884277 0.000409047 0.000105331)
(0.0873509 0.000425332 0.000278917)
(0.0862412 0.000472519 0.000338354)
(0.0850757 0.000532577 0.000124313)
(0.0839965 0.000615017 -0.000313173)
(0.0830641 0.000742366 -0.000746885)
(0.0824008 0.000907679 -0.00112465)
(0.0821181 0.00109122 -0.00131661)
(0.0821175 0.00110999 -0.001185)
(0.0824396 0.00100683 -0.000712834)
(0.0830467 0.000770465 -3.53608e-05)
(0.0835421 0.000506969 0.000580737)
(0.0842526 0.000278014 0.00068182)
(0.0845524 0.000114793 0.00026411)
(0.0848865 2.09354e-05 -0.000445795)
(0.0849518 5.27502e-05 -0.00132551)
(0.0853703 0.000169692 -0.0020632)
(0.0857617 0.000387472 -0.00252776)
(0.0950008 0.000282528 -0.00238157)
(0.0953283 0.000539555 -0.00250918)
(0.0961793 0.000715787 -0.00249515)
(0.0970298 0.000764504 -0.00257417)
(0.0982033 0.00076077 -0.00270601)
(0.0990711 0.000768087 -0.00288904)
(0.100099 0.000780735 -0.00322524)
(0.10064 0.000782264 -0.00352395)
(0.100962 0.000721691 -0.00371155)
(0.100949 0.000642634 -0.00377953)
(0.100837 0.000541323 -0.00360252)
(0.100574 0.000429064 -0.00324203)
(0.100599 0.00039013 -0.00282732)
(0.100599 0.000350538 -0.0022585)
(0.100779 0.000333104 -0.00175623)
(0.100877 0.000340501 -0.00145363)
(0.100968 0.000311872 -0.00132228)
(0.100963 0.000293375 -0.00141231)
(0.100992 0.000234845 -0.00150575)
(0.100945 0.000171146 -0.00142199)
(0.101081 0.00012911 -0.00124853)
(0.10119 0.000133599 -0.00101458)
(0.101503 0.00017819 -0.00085371)
(0.101755 0.000228998 -0.000750556)
(0.102026 0.000255441 -0.000697933)
(0.102154 0.00025917 -0.000542824)
(0.102158 0.000198691 -0.0001813)
(0.101958 0.000147879 8.66576e-05)
(0.101702 0.000112409 0.000346735)
(0.101288 0.00014695 0.000533522)
(0.101051 0.000246424 0.00056663)
(0.100688 0.000315705 0.00077915)
(0.100293 0.000385768 0.00105948)
(0.0996955 0.000425195 0.00128073)
(0.0989775 0.000524531 0.00136001)
(0.0980439 0.000633362 0.00102842)
(0.0968715 0.000733224 0.000259822)
(0.0956139 0.000860499 -0.000642378)
(0.0943726 0.00103542 -0.00147241)
(0.0935784 0.00132125 -0.00202687)
(0.0932381 0.00144808 -0.00202442)
(0.0932914 0.00136127 -0.00135298)
(0.0938029 0.00106944 -0.000292278)
(0.0941995 0.000721986 0.000870349)
(0.094921 0.000402633 0.0015603)
(0.0952852 0.000202455 0.00147343)
(0.0956476 5.15143e-05 0.000874915)
(0.0953658 -5.12731e-05 -7.52091e-05)
(0.0952209 -9.61129e-05 -0.00111047)
(0.0947689 1.24984e-06 -0.00186177)
(0.104534 -4.48536e-05 -0.00146407)
(0.103739 0.000128382 -0.00176271)
(0.103683 0.000334978 -0.00176369)
(0.103812 0.000439394 -0.00181001)
(0.104586 0.000474494 -0.00201376)
(0.105338 0.00053686 -0.00233625)
(0.10634 0.000623227 -0.00275111)
(0.107148 0.000753878 -0.00317897)
(0.107742 0.000832459 -0.00350589)
(0.107975 0.000842205 -0.00372928)
(0.108054 0.000779712 -0.00381195)
(0.10783 0.000643432 -0.00365635)
(0.107771 0.000560926 -0.00335027)
(0.107781 0.000509212 -0.00280455)
(0.108004 0.000486853 -0.00207243)
(0.108285 0.000493527 -0.00146739)
(0.108666 0.000453782 -0.00105158)
(0.108988 0.000402453 -0.000923158)
(0.109364 0.000292107 -0.00105372)
(0.109601 0.000161514 -0.00114092)
(0.109856 3.95346e-05 -0.00116462)
(0.110067 -5.77216e-07 -0.00112251)
(0.110382 6.66494e-05 -0.0011008)
(0.11077 0.000194649 -0.00115657)
(0.111156 0.000299743 -0.00122921)
(0.111438 0.000380558 -0.00128526)
(0.111576 0.000360839 -0.00100989)
(0.111329 0.00029981 -0.000640353)
(0.110981 0.000237344 -0.000304919)
(0.110292 0.000206042 0.000168141)
(0.109805 0.000223084 0.000535925)
(0.109343 0.000215864 0.00112631)
(0.109074 0.000218608 0.00195109)
(0.108783 0.000207038 0.00264288)
(0.108561 0.000334601 0.00307414)
(0.108464 0.000561904 0.00293528)
(0.108111 0.000768573 0.00205216)
(0.107524 0.000942048 0.000637543)
(0.106448 0.00108631 -0.00099203)
(0.105411 0.00139508 -0.00244579)
(0.104834 0.0016469 -0.00326513)
(0.104617 0.00165771 -0.00298151)
(0.10491 0.00136475 -0.00183871)
(0.105027 0.000968158 -0.000239021)
(0.105485 0.000578861 0.0012037)
(0.105717 0.000381492 0.0018647)
(0.106349 0.000300476 0.00177949)
(0.106308 0.000206993 0.00118462)
(0.106227 3.70217e-05 0.000209348)
(0.105243 -0.000107097 -0.000705655)
(0.115263 7.79843e-05 -0.000593977)
(0.114044 -1.67397e-05 -0.000979737)
(0.113059 2.57449e-05 -0.000905234)
(0.112162 6.49209e-05 -0.000756298)
(0.111887 6.79403e-05 -0.000800779)
(0.111935 0.000116819 -0.00124877)
(0.112302 0.000231432 -0.00190163)
(0.112731 0.000452855 -0.00255001)
(0.113121 0.000699454 -0.00305597)
(0.113279 0.000874364 -0.00332896)
(0.113373 0.000923519 -0.00351113)
(0.113231 0.000834744 -0.00354231)
(0.113113 0.000739165 -0.00339631)
(0.113054 0.0006827 -0.00301694)
(0.113246 0.000670964 -0.00228119)
(0.113532 0.000683662 -0.00147951)
(0.114037 0.000631703 -0.000787539)
(0.114601 0.000540308 -0.000300388)
(0.115238 0.000362199 -0.000125812)
(0.11594 0.000140934 -7.67522e-05)
(0.116508 -0.00010376 -7.06305e-05)
(0.117089 -0.000248465 -0.000146207)
(0.117611 -0.000237247 -0.000298108)
(0.118242 -7.9797e-05 -0.000624501)
(0.118988 0.000107461 -0.000995461)
(0.119627 0.000268515 -0.00141442)
(0.120238 0.000341268 -0.00161422)
(0.120247 0.000352288 -0.00149647)
(0.120097 0.000372641 -0.00143083)
(0.119427 0.000402929 -0.00114465)
(0.118767 0.000408021 -0.000757294)
(0.117994 0.000302126 -3.19838e-05)
(0.117291 0.000142675 0.00134777)
(0.116609 -6.17901e-05 0.00290968)
(0.11587 -0.000100677 0.00427649)
(0.115642 0.000114612 0.00493814)
(0.11567 0.000452756 0.00457704)
(0.116058 0.000771763 0.00324111)
(0.116117 0.000967484 0.00113085)
(0.115774 0.00126392 -0.00125411)
(0.115473 0.00157102 -0.00331864)
(0.115244 0.00171241 -0.00421179)
(0.115385 0.00149647 -0.00377608)
(0.115149 0.00109917 -0.002343)
(0.115172 0.000669716 -0.000563473)
(0.114814 0.000453347 0.00079756)
(0.115265 0.000460825 0.00137092)
(0.115436 0.000526446 0.00135601)
(0.116089 0.000501643 0.000807723)
(0.115775 0.000290466 0.000133182)
(0.123478 0.000562475 -0.000595587)
(0.123205 0.00024297 -0.000996867)
(0.122507 -1.14217e-05 -0.000844307)
(0.121472 -0.000162574 -0.000375424)
(0.120592 -0.000233418 0.000172332)
(0.120015 -0.000231198 0.000180663)
(0.119705 -0.000152531 -0.000484908)
(0.119459 5.89719e-05 -0.00142974)
(0.11917 0.000404765 -0.00237259)
(0.118747 0.000760917 -0.00292828)
(0.118348 0.000972982 -0.00321888)
(0.117913 0.000982739 -0.00331832)
(0.117591 0.000906794 -0.00321116)
(0.117316 0.000861634 -0.00292558)
(0.117389 0.000878693 -0.00224353)
(0.1176 0.000915437 -0.00141451)
(0.118026 0.000857679 -0.000627172)
(0.118751 0.000734962 -3.54769e-05)
(0.119395 0.000507096 0.000309646)
(0.120347 0.000229171 0.000577034)
(0.121049 -0.000102302 0.000907919)
(0.121775 -0.000361248 0.00121418)
(0.122456 -0.000471523 0.00135087)
(0.123134 -0.000409424 0.001153)
(0.124211 -0.000230579 0.000648485)
(0.125286 -4.62893e-05 -1.79164e-05)
(0.126664 3.93325e-05 -0.000726194)
(0.127376 7.05092e-05 -0.00110049)
(0.127755 0.000148461 -0.00150748)
(0.127548 0.00032491 -0.00189341)
(0.127202 0.00052466 -0.00219734)
(0.126788 0.000529523 -0.0022076)
(0.126111 0.000317537 -0.00115788)
(0.12537 -8.04954e-05 0.000876605)
(0.12412 -0.000384901 0.00343327)
(0.12302 -0.000397147 0.00550367)
(0.122116 -0.000138049 0.0063216)
(0.122002 0.000235493 0.00575913)
(0.122327 0.000521864 0.00389866)
(0.122713 0.00085333 0.00128182)
(0.123164 0.00122568 -0.00153765)
(0.123382 0.00151121 -0.00359069)
(0.123642 0.00144481 -0.00433497)
(0.123094 0.00111056 -0.00369488)
(0.122712 0.000650637 -0.00224118)
(0.121736 0.00035717 -0.000678957)
(0.121735 0.000347479 0.000300086)
(0.121626 0.00053459 0.000660646)
(0.122472 0.000771141 0.000380415)
(0.123005 0.000796397 -8.34674e-05)
(0.127876 0.000962688 -0.00111862)
(0.1286 0.000687062 -0.00163209)
(0.128655 0.000240888 -0.00165164)
(0.128035 -0.000194861 -0.00124382)
(0.127262 -0.000438435 -0.000376943)
(0.126806 -0.000476139 0.000450778)
(0.126654 -0.000359991 0.000509109)
(0.126535 -0.000153225 -7.82775e-05)
(0.126057 0.00017172 -0.00115525)
(0.125222 0.000588009 -0.00211825)
(0.124282 0.00093475 -0.00285191)
(0.123289 0.00107922 -0.00329506)
(0.122508 0.00104015 -0.00326469)
(0.12178 0.00100155 -0.0030177)
(0.121471 0.0010525 -0.00230635)
(0.121486 0.00114102 -0.0014716)
(0.12156 0.00109901 -0.000657118)
(0.122247 0.000938469 -8.16576e-05)
(0.122761 0.00066447 8.88721e-05)
(0.123791 0.000368389 0.000135702)
(0.124662 4.54814e-05 0.000331902)
(0.125366 -0.000243608 0.000954093)
(0.126035 -0.000405047 0.00174733)
(0.126389 -0.000428846 0.0023881)
(0.127224 -0.00033804 0.00251048)
(0.128211 -0.000218718 0.00218123)
(0.129914 -0.000243744 0.00145413)
(0.131418 -0.000293928 0.000747876)
(0.132533 -0.000297923 2.99046e-05)
(0.133044 -0.000166709 -0.000810081)
(0.13314 0.000152253 -0.00183097)
(0.133411 0.000410667 -0.00306095)
(0.13327 0.000407419 -0.00354461)
(0.133049 5.87339e-05 -0.00255495)
(0.13221 -0.000392613 0.00025529)
(0.131146 -0.000635847 0.0037298)
(0.129733 -0.000552869 0.00625709)
(0.128571 -0.000296371 0.00709934)
(0.127886 -3.40526e-05 0.0059601)
(0.127609 0.000263715 0.00364774)
(0.127854 0.000661425 0.000809909)
(0.128134 0.00112272 -0.00163926)
(0.1286 0.001326 -0.00320902)
(0.128011 0.001211 -0.00343103)
(0.127404 0.000786822 -0.00264539)
(0.125982 0.000368789 -0.00136709)
(0.125517 0.000156194 -0.000273504)
(0.125147 0.000239905 0.000296532)
(0.125763 0.000584434 7.28357e-05)
(0.126721 0.000942495 -0.000574226)
(0.129479 0.00097372 -0.00117104)
(0.130812 0.000951947 -0.00198576)
(0.131688 0.000616891 -0.00234181)
(0.131635 4.2146e-05 -0.00224707)
(0.130935 -0.0004462 -0.00166362)
(0.130438 -0.000685633 -0.000657052)
(0.130506 -0.000580037 -7.56765e-05)
(0.131142 -0.000246352 6.72863e-06)
(0.131468 0.000177437 -0.000513655)
(0.131103 0.000597013 -0.00117976)
(0.130286 0.000921944 -0.0019695)
(0.12913 0.00111444 -0.00296241)
(0.128105 0.00108499 -0.00334831)
(0.126999 0.00102507 -0.00331883)
(0.126105 0.00109286 -0.00265547)
(0.125733 0.00126199 -0.00184392)
(0.12521 0.00131591 -0.001124)
(0.125517 0.00114711 -0.000496136)
(0.125653 0.000793227 -0.000369451)
(0.126377 0.000410288 -0.000552264)
(0.127315 8.88581e-05 -0.000985157)
(0.128106 -0.000161404 -0.000908909)
(0.128973 -0.000260997 -0.000113229)
(0.129256 -0.00022539 0.00119832)
(0.129663 -0.000135255 0.00238828)
(0.130108 -6.74237e-05 0.0030187)
(0.131363 -0.000260162 0.00304138)
(0.133033 -0.000515571 0.00265639)
(0.134624 -0.000658244 0.00195583)
(0.13586 -0.000673379 0.00105753)
(0.136316 -0.000447718 -4.85332e-05)
(0.137001 -0.000119475 -0.00179084)
(0.137359 8.49188e-05 -0.00355616)
(0.137563 -9.7809e-06 -0.00453383)
(0.1372 -0.000371722 -0.00314238)
(0.136714 -0.000745653 0.000462522)
(0.136074 -0.000766766 0.00431627)
(0.135139 -0.00060632 0.00695359)
(0.134013 -0.000391393 0.00704297)
(0.132757 -0.00012709 0.0052532)
(0.131809 0.000203017 0.00265593)
(0.131146 0.000696437 0.000325535)
(0.131188 0.00112404 -0.00151123)
(0.130515 0.00135065 -0.00231366)
(0.129866 0.00116437 -0.00209669)
(0.128348 0.000745937 -0.00122967)
(0.127544 0.000291903 -0.000194536)
(0.127054 5.90428e-05 0.000586771)
(0.127313 0.000187675 0.0005906)
(0.128155 0.0006634 -0.000287996)
(0.129926 0.000777444 -0.000321604)
(0.131099 0.000955114 -0.00145683)
(0.132371 0.000784896 -0.00225068)
(0.133164 0.000243724 -0.00257542)
(0.133135 -0.000348221 -0.00246427)
(0.132823 -0.000771529 -0.00167739)
(0.132676 -0.000833122 -0.00107507)
(0.133426 -0.000461322 -0.000873706)
(0.134425 0.000229559 -0.00114467)
(0.13486 0.000894179 -0.00131886)
(0.134788 0.00124422 -0.00132304)
(0.134103 0.00134872 -0.00221968)
(0.133357 0.00117118 -0.00307482)
(0.132373 0.000975629 -0.00348076)
(0.131051 0.000998461 -0.00300992)
(0.130209 0.00123993 -0.00220049)
(0.128988 0.00145873 -0.00172742)
(0.128746 0.00137285 -0.00127359)
(0.128527 0.000958429 -0.00112896)
(0.128801 0.00040267 -0.00108596)
(0.12947 -6.16023e-05 -0.00165155)
(0.13008 -0.000336046 -0.00235538)
(0.131003 -0.000353912 -0.00238694)
(0.131506 -0.000128934 -0.00141629)
(0.131855 0.000121178 0.000247877)
(0.131897 0.000248549 0.00167779)
(0.132446 -4.33178e-05 0.00257473)
(0.133693 -0.00060497 0.00307965)
(0.135174 -0.00100445 0.0029639)
(0.136884 -0.00115604 0.00232833)
(0.137748 -0.00100769 0.00148889)
(0.138619 -0.000691958 -8.45362e-05)
(0.139255 -0.000431161 -0.00202692)
(0.139711 -0.000355081 -0.00413811)
(0.139478 -0.000470622 -0.00458036)
(0.138881 -0.000852606 -0.00205619)
(0.138701 -0.0009886 0.00187946)
(0.13873 -0.000893013 0.00573158)
(0.138455 -0.000677449 0.00727546)
(0.137497 -0.000303796 0.00624408)
(0.135881 7.4745e-05 0.00389955)
(0.134072 0.00050103 0.00179638)
(0.133225 0.000925003 1.3034e-05)
(0.13225 0.00137421 -0.001163)
(0.131558 0.00151832 -0.00145556)
(0.130155 0.00130493 -0.000988645)
(0.12912 0.000796714 -1.99415e-05)
(0.128481 0.00024632 0.000999448)
(0.128491 -3.1049e-05 0.00151609)
(0.128991 0.000300868 0.000803811)
(0.130415 0.000596349 0.000837314)
(0.131 0.000932349 -0.000398711)
(0.131972 0.000867167 -0.00142206)
(0.133163 0.000315649 -0.00201981)
(0.13406 -0.000391311 -0.00234881)
(0.134668 -0.000952944 -0.00188709)
(0.134839 -0.00119461 -0.00127424)
(0.135405 -0.000943447 -0.00112341)
(0.136418 -4.3538e-05 -0.00172528)
(0.137049 0.00109408 -0.00225759)
(0.137458 0.00181695 -0.00160867)
(0.137493 0.00201038 -0.00157146)
(0.137376 0.00164912 -0.00234452)
(0.13703 0.0011747 -0.00325265)
(0.135718 0.00102651 -0.00324289)
(0.134579 0.00126953 -0.00238731)
(0.132806 0.00163111 -0.00196949)
(0.132018 0.00165173 -0.00179269)
(0.131626 0.00120971 -0.00191077)
(0.13175 0.000475356 -0.00170329)
(0.132256 -0.000261807 -0.00177494)
(0.132505 -0.000719128 -0.00260495)
(0.133039 -0.000781611 -0.00342667)
(0.133414 -0.000390378 -0.00342076)
(0.133772 0.000153326 -0.0021019)
(0.133684 0.000511179 -0.000359712)
(0.133677 0.000229283 0.000977684)
(0.134336 -0.000596544 0.00217994)
(0.135212 -0.00137601 0.00292154)
(0.136795 -0.00179416 0.00283216)
(0.137957 -0.00168351 0.00235936)
(0.139066 -0.00127023 0.00104684)
(0.139966 -0.000944031 -0.000609025)
(0.140742 -0.000835467 -0.00274706)
(0.140787 -0.000740426 -0.00427671)
(0.139801 -0.000955732 -0.00297894)
(0.138996 -0.00115527 0.000259169)
(0.139095 -0.00114945 0.00430122)
(0.139653 -0.00102938 0.00690957)
(0.140012 -0.000597231 0.00678036)
(0.139174 -2.0291e-05 0.00468666)
(0.137102 0.000490946 0.00269032)
(0.135494 0.0008389 0.00111717)
(0.134046 0.00131691 -0.000157243)
(0.133164 0.00168791 -0.000839752)
(0.131936 0.00176431 -0.000877103)
(0.13092 0.00147578 -0.000135654)
(0.13012 0.000837511 0.000995348)
(0.129849 0.000158729 0.00206695)
(0.129988 0.000129377 0.00189922)
(0.131442 0.000703775 0.00137811)
(0.131565 0.00103326 0.000185686)
(0.131973 0.00092254 -0.000811557)
(0.132841 0.000227711 -0.00124135)
(0.133949 -0.000714726 -0.00149006)
(0.135293 -0.00144643 -0.0011809)
(0.136342 -0.00184929 -0.000420262)
(0.137202 -0.00181598 6.15122e-05)
(0.13825 -0.000874259 -0.000681672)
(0.138803 0.000713117 -0.00233802)
(0.139061 0.00204809 -0.00235065)
(0.139423 0.00267624 -0.00156806)
(0.139859 0.00241868 -0.00149577)
(0.140411 0.00179469 -0.00243446)
(0.139636 0.00143118 -0.00312764)
(0.13859 0.00155583 -0.00247939)