/*--------------------------------*- C++ -*----------------------------------*\
| =========                 |                                                 |
| \\      /  F ield         | OpenFOAM: The Open Source CFD Toolbox           |
|  \\    /   O peration     | Version:  2.3.0                                 |
|   \\  /    A nd           | Web:      www.OpenFOAM.org                      |
|    \\/     M anipulation  |                                                 |
\*---------------------------------------------------------------------------*/
FoamFile
{
    version     2.0;
    format      ascii;
    class       volVectorField;
    location    "200";
    object      U_0;
}
// * * * * * * * * * * * * * * * * * * * * * * * * * * * * * * * * * * * * * //

dimensions      [0 1 -1 0 0 0 0];

internalField   nonuniform List<vector> 
60000
(
(0.00899601 -6.90221e-05 0.00161878)
(0.00967218 -5.05172e-05 0.00174776)
(0.0103727 -2.48537e-05 0.001539)
(0.0109798 -6.62763e-06 0.00129756)
(0.0116228 -2.62431e-07 0.00112353)
(0.0125323 1.03599e-05 0.00131015)
(0.0135491 1.40348e-05 0.00175402)
(0.014197 1.95045e-06 0.00166741)
(0.014338 -5.89248e-06 0.000713648)
(0.0140762 -1.61353e-05 -0.000482459)
(0.0133505 -1.24063e-05 -0.00124219)
(0.0124943 -4.2073e-05 -0.00128514)
(0.0118821 -9.86796e-05 -0.00072571)
(0.0116913 -0.000108492 -9.79132e-05)
(0.0115832 -6.84539e-05 6.41275e-05)
(0.0111655 -2.24745e-05 -0.00016277)
(0.0103852 -7.29557e-07 -0.000426239)
(0.00963442 -1.5879e-05 -0.000594726)
(0.00933633 -2.35229e-05 -0.000722254)
(0.00947181 -8.55087e-07 -0.000775497)
(0.00961218 2.57394e-05 -0.000553858)
(0.00949674 4.88336e-05 -4.09661e-05)
(0.00944638 5.77948e-05 0.000358004)
(0.00979192 3.42582e-05 0.000516339)
(0.0105237 9.09629e-06 0.000494081)
(0.0113233 1.81158e-05 0.000402279)
(0.0115374 5.15121e-05 0.000148004)
(0.0108482 7.05077e-05 -0.000500151)
(0.00983251 3.32779e-05 -0.00113997)
(0.00887603 -6.84356e-05 -0.00118563)
(0.00812103 -0.0001534 -0.000744458)
(0.00787044 -0.000202614 -0.000156318)
(0.00806914 -0.00017644 0.000134161)
(0.00805251 -4.72814e-05 -0.000218463)
(0.0076491 3.75854e-05 -0.00058215)
(0.00741034 5.26299e-05 -0.000609867)
(0.00749501 4.21021e-05 -0.000508695)
(0.00772125 3.376e-05 -0.000296119)
(0.00800886 -3.76576e-06 0.00027068)
(0.00844575 -5.09254e-05 0.00102038)
(0.0264899 -0.000362242 0.00236458)
(0.0276393 -0.0002617 0.00253557)
(0.0292109 -0.000172988 0.00216854)
(0.0309862 -0.000152961 0.00170764)
(0.0329955 -0.000193225 0.0015536)
(0.0356898 -0.00018536 0.0025989)
(0.0387055 -0.000173566 0.00460167)
(0.0409376 -0.000175568 0.00529243)
(0.0422142 -0.000166268 0.00351793)
(0.0427445 -0.000163173 0.000561864)
(0.0419174 -0.000131262 -0.00206596)
(0.0400825 -0.000255217 -0.00335049)
(0.0377913 -0.000452827 -0.00269348)
(0.0358803 -0.000423524 -0.00107282)
(0.0344095 -0.000212006 -0.000211628)
(0.0329409 5.66101e-06 -0.000267376)
(0.0311142 9.492e-05 -0.000433153)
(0.0290971 8.52833e-05 -0.00042981)
(0.0277675 9.80101e-05 -0.000617466)
(0.0277141 0.000171281 -0.000800102)
(0.028281 0.000262402 -0.000407716)
(0.0286512 0.000318509 0.000329736)
(0.0292436 0.000272421 0.000899261)
(0.0303623 0.000134546 0.00139564)
(0.031681 3.83215e-05 0.00169091)
(0.0331469 6.94678e-05 0.00164586)
(0.0343401 0.000172235 0.000957989)
(0.0345473 0.000178993 -0.000710008)
(0.033611 -7.64598e-05 -0.00216655)
(0.0310098 -0.00044598 -0.0022032)
(0.0273728 -0.000749589 -0.00146808)
(0.0244129 -0.000868866 -0.000859052)
(0.0228392 -0.000634827 -0.000690011)
(0.0219258 -0.000110969 -0.00106931)
(0.0212827 0.000198773 -0.00119654)
(0.021337 0.000209045 -0.00079823)
(0.0220796 0.000122404 -0.000392655)
(0.0232977 2.47848e-05 -4.4306e-05)
(0.0245709 -0.000142815 0.000671433)
(0.0256376 -0.000323421 0.00159682)
(0.0415322 -0.000687237 0.00162907)
(0.042559 -0.000490998 0.00181538)
(0.0444135 -0.000335977 0.0014409)
(0.0467495 -0.000350358 0.000588145)
(0.0494362 -0.000473582 -0.000283926)
(0.0531846 -0.000603757 0.000736601)
(0.0573319 -0.000734508 0.00452595)
(0.0606903 -0.000839056 0.00796654)
(0.063566 -0.000792798 0.00796483)
(0.0668716 -0.000616741 0.00502991)
(0.0685446 -0.000297914 0.000505754)
(0.0667334 -0.000344327 -0.0037707)
(0.0623535 -0.000682608 -0.00503539)
(0.0585119 -0.000665769 -0.00302108)
(0.0559672 -0.000295385 -0.000967528)
(0.0540918 0.000101264 -0.000550141)
(0.0521863 0.000250826 -0.000601267)
(0.0492594 0.000283132 4.08495e-05)
(0.046044 0.000364284 0.000534083)
(0.0447962 0.000496926 0.000324706)
(0.0456686 0.000658621 0.000500524)
(0.047074 0.000772779 0.00095573)
(0.0488082 0.000667345 0.0010469)
(0.0508942 0.000447461 0.00155853)
(0.0522719 0.00030028 0.00257985)
(0.0534069 0.000221197 0.00352548)
(0.0556632 0.000187392 0.00369578)
(0.0590099 1.26449e-05 0.00181026)
(0.0612977 -0.00041755 -0.00109207)
(0.0589337 -0.000850602 -0.00219464)
(0.0516166 -0.0012813 -0.00159062)
(0.0432978 -0.00150681 -0.00122385)
(0.0378028 -0.00107996 -0.00150144)
(0.0352268 -0.000140328 -0.00202985)
(0.0342285 0.000422281 -0.00200825)
(0.034424 0.000401241 -0.00115958)
(0.0354824 0.000216301 -0.000259737)
(0.0374012 1.35047e-05 0.000188255)
(0.03952 -0.000282182 0.000619417)
(0.0409098 -0.000610846 0.00113458)
(0.0534615 -0.000838098 0.000620721)
(0.0539024 -0.00059351 0.000281393)
(0.0554996 -0.000362019 -0.000131296)
(0.0576404 -0.000352664 -0.00123901)
(0.0598218 -0.00049828 -0.00322374)
(0.0636387 -0.000730981 -0.00339651)
(0.0681955 -0.00111573 0.00116974)
(0.0711068 -0.00167426 0.00746896)
(0.0732192 -0.00200885 0.0105736)
(0.078431 -0.00184455 0.0101776)
(0.0852437 -0.000893335 0.00622606)
(0.0863831 -0.000218407 -0.000967159)
(0.0804481 -0.000360505 -0.00619956)
(0.0747671 -0.000475734 -0.00538751)
(0.0721765 -0.000228246 -0.00192532)
(0.0709281 0.000301846 -0.000482492)
(0.0701257 0.000496144 -0.00108998)
(0.0680585 0.000443928 -0.000716047)
(0.0637315 0.000563653 0.00107633)
(0.0601662 0.000825105 0.00212662)
(0.0597943 0.00115134 0.0026607)
(0.0614846 0.00143704 0.00288837)
(0.0642172 0.00122102 0.00162766)
(0.0680789 0.000796368 0.000480052)
(0.07142 0.000762549 0.00135742)
(0.0728548 0.000794931 0.00380333)
(0.0741298 0.000539923 0.00667385)
(0.0778105 -0.000138375 0.00718503)
(0.0835396 -0.000945258 0.00371897)
(0.0859965 -0.00133867 4.58285e-05)
(0.0795171 -0.00158829 -0.000585667)
(0.0661619 -0.00184368 -0.000522459)
(0.0544905 -0.00138799 -0.00172357)
(0.0485368 -9.58924e-05 -0.00309243)
(0.046403 0.000745554 -0.00340178)
(0.0462703 0.000659994 -0.00236823)
(0.0470995 0.000350807 -0.000708453)
(0.0489948 0.000103523 0.000522824)
(0.0515354 -0.000243387 0.00111361)
(0.0532414 -0.000679154 0.00104456)
(0.0633759 -0.000667113 0.000790145)
(0.0629261 -0.000417852 -0.000901897)
(0.0640061 -4.39513e-05 -0.00186661)
(0.0660466 7.20447e-05 -0.00304455)
(0.0671764 -0.00013462 -0.00580493)
(0.0695642 -0.000399868 -0.00772963)
(0.0743228 -0.000850644 -0.00372771)
(0.0773652 -0.00186033 0.00442162)
(0.077047 -0.00304028 0.00997549)
(0.0793116 -0.00360954 0.0122886)
(0.0892257 -0.00234263 0.011814)
(0.0972736 -0.000538093 0.00493785)
(0.0935637 0.000165204 -0.00495354)
(0.0855425 0.000402388 -0.00805232)
(0.0820079 0.000478696 -0.00378668)
(0.0814567 0.000883368 0.000311514)
(0.0820045 0.00105657 -5.22891e-05)
(0.0820984 0.000895708 -0.00162768)
(0.0791349 0.000817792 -0.000435174)
(0.0743362 0.000993415 0.00231433)
(0.0714273 0.00151989 0.00495167)
(0.07172 0.0022134 0.00657875)
(0.0744602 0.00211959 0.00487815)
(0.0786413 0.00115647 0.000920157)
(0.0836195 0.000723487 -0.00136413)
(0.0883483 0.00110064 -7.79038e-05)
(0.0919516 0.00121426 0.00477025)
(0.0946209 0.000369773 0.0101098)
(0.0985219 -0.000924563 0.0104138)
(0.103952 -0.00146608 0.00575972)
(0.103925 -0.00142797 0.00241536)
(0.0911942 -0.00167841 0.00142651)
(0.0736376 -0.00138138 -0.000796969)
(0.0625913 8.96996e-05 -0.00372687)
(0.0583251 0.00122679 -0.00495639)
(0.0574322 0.0010524 -0.004232)
(0.0577384 0.00044829 -0.00216112)
(0.0591223 0.000117823 0.0002438)
(0.0614907 -0.000117293 0.00208565)
(0.0634019 -0.000465662 0.00228853)
(0.0727143 -0.000202183 0.00262644)
(0.0713453 7.07864e-05 -0.00058318)
(0.0712374 0.000553083 -0.00281327)
(0.0735175 0.00086369 -0.00410201)
(0.0750325 0.00079054 -0.00691513)
(0.075452 0.000384127 -0.010391)
(0.078806 -0.000124638 -0.00856136)
(0.0830631 -0.00104522 -0.000401827)
(0.0827549 -0.00272424 0.00670194)
(0.0802241 -0.00472584 0.0103965)
(0.0860981 -0.00448894 0.0137151)
(0.0991378 -0.0018282 0.0114583)
(0.103149 0.000225563 0.00045797)
(0.0958164 0.00135184 -0.00924307)
(0.0895735 0.00177713 -0.0084898)
(0.0881686 0.00203729 -0.00170956)
(0.0886523 0.00204377 0.00153163)
(0.0902802 0.00180797 -0.000590187)
(0.0905239 0.00161082 -0.0022845)
(0.0874903 0.00141994 -0.000484452)
(0.0834045 0.00169001 0.00402014)
(0.0810469 0.00274792 0.00895764)
(0.0823879 0.00315664 0.0101499)
(0.0870804 0.00203503 0.00622233)
(0.0921567 0.000622392 0.00060519)
(0.0966429 0.000479563 -0.00262232)
(0.102408 0.00107159 -0.00090094)
(0.10829 0.00067655 0.0049652)
(0.111652 -0.000913368 0.00990381)
(0.115539 -0.0018458 0.0100074)
(0.1213 -0.0010283 0.00751689)
(0.115463 -0.000352668 0.00518946)
(0.0949975 -0.000174689 0.00137724)
(0.0773395 0.000745118 -0.00361944)
(0.0700714 0.0018337 -0.00628514)
(0.0688602 0.00161387 -0.00615243)
(0.0691938 0.000644557 -0.00423963)
(0.0698851 -5.47501e-05 -0.00109296)
(0.0714209 -0.000274862 0.00233183)
(0.0729203 -0.000282156 0.00410228)
(0.0824975 1.44419e-05 0.00512156)
(0.0802967 0.000620625 0.00119866)
(0.0786181 0.00137853 -0.00293489)
(0.0793745 0.0017002 -0.00483484)
(0.0817196 0.00173497 -0.00660979)
(0.082723 0.00153053 -0.0100002)
(0.0841649 0.000871527 -0.0107042)
(0.0883422 5.20298e-05 -0.0049029)
(0.090195 -0.00110788 0.00247564)
(0.0864779 -0.00355628 0.00643064)
(0.0846248 -0.00569561 0.0104542)
(0.0945346 -0.00414796 0.0138213)
(0.10628 -0.000691939 0.00775349)
(0.106366 0.00186519 -0.00538975)
(0.099154 0.00321787 -0.0125738)
(0.0946123 0.00365831 -0.00866886)
(0.0934883 0.00342077 -0.00210631)
(0.0944993 0.00291013 -0.000613949)
(0.0965218 0.00271756 -0.00291217)
(0.0968083 0.00244637 -0.00411609)
(0.094769 0.00219107 -0.00073441)
(0.0920133 0.00292596 0.00646861)
(0.0915162 0.0035499 0.0123669)
(0.0954311 0.00283626 0.0130183)
(0.101447 0.00123166 0.00815751)
(0.105621 2.29942e-05 0.00121626)
(0.109666 -0.000102914 -0.0019333)
(0.115722 -7.20699e-06 0.000528301)
(0.12044 -0.000879939 0.00400835)
(0.122062 -0.00248839 0.00552192)
(0.127293 -0.0022976 0.00696322)
(0.131695 0.000160808 0.00849095)
(0.118287 0.00203232 0.00571911)
(0.0958797 0.00263085 -0.00162486)
(0.0831588 0.00286115 -0.00721652)
(0.081022 0.00224606 -0.00849907)
(0.0829448 0.00105534 -0.00717014)
(0.0844444 2.54287e-05 -0.00366537)
(0.084688 -0.000438537 0.00137157)
(0.0841921 -0.000364586 0.0052832)
(0.0956959 0.00013006 0.00752727)
(0.0905407 0.000707909 0.00431495)
(0.087223 0.00206754 -0.00162899)
(0.0860667 0.00281761 -0.00596057)
(0.0866612 0.00254441 -0.00758841)
(0.0877675 0.00220886 -0.00892051)
(0.0893203 0.00172631 -0.00974586)
(0.0930836 0.00101998 -0.00647622)
(0.0969332 0.000381212 -0.00024249)
(0.0950657 -0.00124241 0.00431117)
(0.0886329 -0.00409075 0.0076041)
(0.0887834 -0.00518208 0.0116731)
(0.100467 -0.00244514 0.011109)
(0.110708 0.00127355 0.000825225)
(0.110302 0.00431873 -0.0120583)
(0.104862 0.00558984 -0.0157865)
(0.100665 0.00513572 -0.0107072)
(0.0991243 0.00417591 -0.0055365)
(0.100119 0.00376882 -0.00483451)
(0.101381 0.003486 -0.00710872)
(0.101786 0.00316453 -0.00670607)
(0.101321 0.00341045 -8.49816e-05)
(0.101394 0.00348974 0.00875463)
(0.104306 0.00263479 0.0145316)
(0.110281 0.00153166 0.0143907)
(0.115147 0.000386806 0.00818455)
(0.117588 -0.000704593 0.00191864)
(0.1208 -0.00121297 0.00118526)
(0.1256 -0.00143108 0.00235964)
(0.12869 -0.00240425 0.00128054)
(0.129912 -0.00327428 0.00165061)
(0.133935 -0.00127997 0.00637519)
(0.131468 0.00259863 0.00884401)
(0.116171 0.00488841 0.0033582)
(0.101179 0.00471058 -0.00488471)
(0.0955067 0.00326232 -0.00983169)
(0.0969466 0.00173382 -0.011237)
(0.10064 0.000511123 -0.00883142)
(0.102177 -0.000154323 -0.00222183)
(0.100386 -8.95541e-05 0.00494252)
(0.113896 0.000881101 0.00778534)
(0.105631 0.000670511 0.00811961)
(0.0984505 0.00207956 0.00249081)
(0.0951984 0.00377451 -0.00449235)
(0.0939815 0.00354253 -0.00894028)
(0.0930821 0.00263484 -0.0107015)
(0.0932743 0.00225643 -0.0104612)
(0.0964137 0.00198268 -0.00707681)
(0.101185 0.00149555 -0.00176137)
(0.102216 0.000502937 0.00257705)
(0.0967383 -0.00166986 0.00653771)
(0.0902392 -0.00379059 0.0113707)
(0.093363 -0.0031449 0.0139621)
(0.106444 0.000363221 0.00842717)
(0.116349 0.00454767 -0.0053272)
(0.116729 0.00699213 -0.0167344)
(0.111685 0.00684704 -0.0181541)
(0.106519 0.0056444 -0.0131338)
(0.104764 0.00493292 -0.00869685)
(0.105192 0.00442721 -0.00906983)
(0.105897 0.00398116 -0.011076)
(0.106966 0.00412456 -0.00783297)
(0.108717 0.00384974 0.000342545)
(0.11189 0.00240779 0.00865748)
(0.117312 0.00117569 0.0134096)
(0.122108 0.000769294 0.011257)
(0.123577 -4.88371e-05 0.00509934)
(0.123891 -0.00119552 0.00268531)
(0.126321 -0.00187586 0.00380446)
(0.132103 -0.00261698 0.00261858)
(0.136039 -0.00364714 -0.000133664)
(0.136548 -0.00257385 0.00174566)
(0.134383 0.00165813 0.00763748)
(0.127823 0.00537347 0.00826897)
(0.119302 0.00561263 0.00178556)
(0.112511 0.00366461 -0.00584119)
(0.110031 0.00195605 -0.0116468)
(0.112877 0.00104394 -0.0140597)
(0.117228 0.000698471 -0.00957146)
(0.118319 0.000899974 0.000256851)
(0.130765 0.0017344 0.0034836)
(0.124331 0.00152408 0.00925768)
(0.113171 0.00225183 0.0072071)
(0.10621 0.00401657 0.000107627)
(0.103865 0.00419203 -0.00708876)
(0.101328 0.0032179 -0.0116401)
(0.0988229 0.00289416 -0.0124337)
(0.0998394 0.00298553 -0.00888398)
(0.103959 0.00264232 -0.003531)
(0.106686 0.00203458 0.000298807)
(0.10465 0.000738883 0.00349543)
(0.0982607 -0.00174773 0.00886887)
(0.0933995 -0.00337137 0.0155163)
(0.0997767 -0.00143032 0.0177704)
(0.114184 0.00301355 0.00929209)
(0.124226 0.00670824 -0.00575857)
(0.124138 0.00766059 -0.0161546)
(0.116994 0.00699741 -0.0176314)
(0.111343 0.00644703 -0.0136535)
(0.110236 0.00577654 -0.011322)
(0.110708 0.00472014 -0.0126196)
(0.111499 0.00412123 -0.012077)
(0.112796 0.00351177 -0.0071239)
(0.115085 0.00199564 7.60134e-05)
(0.119689 0.000808641 0.00680256)
(0.124888 0.000920097 0.00882485)
(0.126881 0.000943042 0.00533199)
(0.125971 -0.000118724 0.00300399)
(0.12499 -0.00154424 0.004507)
(0.130341 -0.00264352 0.00509176)
(0.139443 -0.00336974 0.00245456)
(0.14259 -0.00283982 0.00103628)
(0.138446 0.000132459 0.00542301)
(0.132791 0.00343653 0.00949078)
(0.127966 0.00452192 0.00628391)
(0.121775 0.00369754 -0.000248861)
(0.115171 0.0021949 -0.0061229)
(0.113488 0.000779266 -0.0112968)
(0.118955 0.000280571 -0.0126697)
(0.127461 0.000955485 -0.00652005)
(0.133721 -4.32023e-06 -0.0010286)
(0.138118 0.0016413 0.00717981)
(0.131412 0.003092 0.0101244)
(0.12025 0.00426873 0.00565677)
(0.112555 0.00427878 -0.00232491)
(0.107869 0.003646 -0.00885857)
(0.104144 0.00351521 -0.0109891)
(0.103178 0.00385931 -0.00812024)
(0.105483 0.0036575 -0.00339564)
(0.108336 0.00329217 -0.000436329)
(0.110608 0.00327864 0.00104492)
(0.110321 0.00172434 0.00376727)
(0.105026 -0.00193113 0.0102725)
(0.101576 -0.00403837 0.018661)
(0.108885 -0.00136526 0.0198597)
(0.122081 0.00334936 0.00960685)
(0.130193 0.00637444 -0.00452565)
(0.128018 0.00744427 -0.0137406)
(0.121568 0.00772461 -0.0148413)
(0.117655 0.00721939 -0.0126643)
(0.11573 0.00572696 -0.0128566)
(0.114085 0.00387219 -0.0134161)
(0.112841 0.0020678 -0.0111647)
(0.113468 0.000292822 -0.00585497)
(0.117102 -0.000375432 0.000634612)
(0.122875 0.000547899 0.00448545)
(0.127494 0.00179912 0.00371089)
(0.128354 0.00153231 0.00267298)
(0.125105 -0.000506558 0.00487892)
(0.126323 -0.00302605 0.00703182)
(0.137918 -0.00384647 0.00541894)
(0.148248 -0.00254964 0.00271938)
(0.145474 3.98654e-05 0.00513048)
(0.134696 0.00247069 0.00964754)
(0.126498 0.00393881 0.00846611)
(0.121709 0.00442522 0.00308691)
(0.116735 0.00352224 -0.00173364)
(0.113217 0.00128443 -0.00568587)
(0.114874 -0.000936086 -0.00861483)
(0.123081 -0.00143284 -0.00766852)
(0.128068 -0.00395651 -0.00143682)
(0.136034 -0.000984925 0.00362931)
(0.140607 0.00316967 0.00912083)
(0.138993 0.00562895 0.0104215)
(0.131456 0.00543024 0.00524624)
(0.121864 0.00442745 -0.00291703)
(0.113721 0.00408259 -0.00772531)
(0.109061 0.00446771 -0.00600203)
(0.107799 0.00450587 -0.00105582)
(0.107682 0.00401089 0.00168562)
(0.110001 0.00401914 0.00144684)
(0.115663 0.00398971 0.00104681)
(0.118593 0.00173145 0.00373394)
(0.114868 -0.00253366 0.0113273)
(0.111914 -0.0037704 0.0181013)
(0.11718 -0.000588609 0.0153275)
(0.126294 0.00330986 0.00412431)
(0.130381 0.00621289 -0.00700727)
(0.128641 0.00815067 -0.0110087)
(0.125578 0.00885875 -0.010241)
(0.122456 0.00795371 -0.0110398)
(0.118543 0.00551754 -0.0129417)
(0.114231 0.00235234 -0.0132372)
(0.112468 -0.000213454 -0.010361)
(0.114498 -0.000960283 -0.00453247)
(0.119404 0.000170758 0.000626214)
(0.125577 0.00216534 0.00219825)
(0.129768 0.00297839 0.00197811)
(0.127994 0.00120483 0.00339521)
(0.124819 -0.00277357 0.00582098)
(0.131496 -0.0053811 0.00609246)
(0.146329 -0.00376198 0.00393019)
(0.151688 0.000237365 0.00494987)
(0.141409 0.00343036 0.00919323)
(0.128313 0.0047784 0.00975405)
(0.122475 0.00499586 0.00583536)
(0.120735 0.00434169 0.00154768)
(0.118684 0.0026327 -0.00132216)
(0.117917 -0.000499837 -0.00288333)
(0.120967 -0.00360626 -0.00342753)
(0.125928 -0.00605249 0.000319228)
(0.129309 -0.00472439 0.00167847)
(0.13874 -0.000600789 0.00483407)
(0.149504 0.00299558 0.00850225)
(0.149452 0.00486229 0.00783359)
(0.137076 0.00571825 0.00203757)
(0.122214 0.00596453 -0.0038384)
(0.112778 0.0057869 -0.00484146)
(0.109526 0.00521197 -0.00114287)
(0.108631 0.00455743 0.00301091)
(0.109817 0.00418199 0.00377091)
(0.114311 0.00400736 0.0021193)
(0.118963 0.00296983 0.00161869)
(0.120259 -1.48902e-05 0.00505141)
(0.117746 -0.00247309 0.011253)
(0.116583 -0.00141239 0.0133781)
(0.119615 0.00169357 0.00707169)
(0.123351 0.0047043 -0.00326752)
(0.127195 0.00703716 -0.00877286)
(0.129875 0.00882411 -0.00798764)
(0.128936 0.00976587 -0.00720753)
(0.125751 0.00839076 -0.00880753)
(0.12161 0.00476641 -0.0110864)
(0.118159 0.0012923 -0.0113584)
(0.117249 -1.86351e-05 -0.00783184)
(0.119337 0.000669124 -0.00307895)
(0.123996 0.00216116 -0.000439194)
(0.128958 0.00358956 0.000217355)
(0.129693 0.00296504 0.000777299)
(0.126639 -0.000817374 0.001564)
(0.127229 -0.00531881 0.00195034)
(0.137317 -0.00539767 0.00169632)
(0.148804 -0.000605391 0.00316031)
(0.149833 0.00401913 0.00743551)
(0.140765 0.00563684 0.00939392)
(0.131757 0.00536222 0.00699026)
(0.127642 0.00472659 0.00326985)
(0.12686 0.00376562 0.000251144)
(0.126854 0.00116384 -0.000896177)
(0.126079 -0.00312141 -0.000555618)
(0.131793 -0.00592004 0.00150855)
(0.130234 -0.00749593 0.00273988)
(0.135554 -0.00528222 0.00292131)
(0.147725 -0.00131831 0.00387663)
(0.15266 0.00305706 0.00445546)
(0.143 0.00642298 0.00346086)
(0.129397 0.00706446 0.00101687)
(0.122058 0.0051025 -0.0019067)
(0.120729 0.00238155 -0.00264868)
(0.119192 0.000914643 0.000434213)
(0.116738 0.00125619 0.00428773)
(0.117173 0.00245211 0.00480845)
(0.118696 0.00303822 0.0029085)
(0.118958 0.00168631 0.00172684)
(0.11786 -0.000330784 0.00375594)
(0.116316 -0.000412966 0.00736815)
(0.116732 0.00146286 0.00698982)
(0.118454 0.00376001 0.000115441)
(0.122164 0.00587101 -0.00700758)
(0.127441 0.00864009 -0.00843407)
(0.130577 0.0115357 -0.00757587)
(0.130697 0.011666 -0.00838487)
(0.128476 0.00837453 -0.0103663)
(0.12569 0.00432024 -0.0114262)
(0.123929 0.00234288 -0.00951299)
(0.123578 0.00232877 -0.00585285)
(0.124987 0.00253438 -0.00314084)
(0.128361 0.00317236 -0.00204573)
(0.130867 0.00358614 -0.00129467)
(0.129661 0.00140142 -0.000599578)
(0.127065 -0.00340476 -0.00104274)
(0.130323 -0.00598886 -0.00223665)
(0.142112 -0.00263085 -0.00123179)
(0.152752 0.00288009 0.00359182)
(0.151136 0.00629145 0.0080539)
(0.141268 0.0067447 0.00821009)
(0.133841 0.00554848 0.00530606)
(0.132093 0.00389639 0.0014608)
(0.13368 0.0019871 -0.00109372)
(0.134127 -0.00148207 -0.000717692)
(0.138696 -0.00397651 0.00104491)
(0.136203 -0.00679126 0.0040767)
(0.135904 -0.00665197 0.00472486)
(0.139381 -0.00280526 0.00413325)
(0.140833 0.00333203 0.00364923)
(0.136738 0.00861591 0.00374659)
(0.132939 0.0105749 0.00346028)
(0.135204 0.00835622 0.00085086)
(0.141841 0.00298757 -0.0024619)
(0.144045 -0.00204775 -0.00227869)
(0.137453 -0.00341789 0.00164824)
(0.128973 -0.00143444 0.00405617)
(0.123652 0.00103229 0.00275279)
(0.12018 0.00145412 0.000178573)
(0.11751 0.000522109 -0.00123774)
(0.115784 0.000740152 -0.000918621)
(0.115782 0.00247834 -0.000647729)
(0.116624 0.00426852 -0.00401189)
(0.118992 0.00535883 -0.00993108)
(0.123087 0.00736568 -0.0138242)
(0.127378 0.0104781 -0.0144467)
(0.131234 0.01176 -0.0124519)
(0.133173 0.00985346 -0.0100506)
(0.133201 0.00666567 -0.00947221)
(0.132328 0.0050812 -0.00874294)
(0.131142 0.00538086 -0.00642907)
(0.130143 0.00523619 -0.00375609)
(0.130721 0.00417388 -0.00173373)
(0.132945 0.00369128 0.000178334)
(0.134343 0.00284853 0.00232183)
(0.133024 -0.000247496 0.00183941)
(0.131353 -0.00382976 -0.00257415)
(0.135609 -0.00395254 -0.00591453)
(0.146389 -0.000362003 -0.00317278)
(0.153215 0.00480733 0.00284229)
(0.15015 0.00851372 0.00602517)
(0.143371 0.00831154 0.00516963)
(0.138958 0.00520597 0.0022841)
(0.138297 0.00197208 -0.000556467)
(0.139297 -0.000694253 -0.00140038)
(0.142943 -0.00365453 -0.000223425)
(0.141629 -0.00490103 0.00367449)
(0.136225 -0.00451291 0.00583798)
(0.130632 -0.0011525 0.00613711)
(0.126982 0.00383762 0.00626007)
(0.125812 0.00708598 0.00560909)
(0.128132 0.00755509 0.00282651)
(0.134377 0.00577789 -0.00188551)
(0.143597 0.00246297 -0.00527429)
(0.150711 -0.00129404 -0.00431772)
(0.14847 -0.00372577 -0.000781499)
(0.138398 -0.00320924 0.00037227)
(0.127857 -0.000536263 -0.0013)
(0.120409 0.00152664 -0.00184962)
(0.116299 0.00180629 -0.00113606)
(0.11444 0.0017286 -0.00189655)
(0.113942 0.00276211 -0.00330915)
(0.114435 0.00415687 -0.00476603)
(0.117412 0.00477905 -0.00632152)
(0.122997 0.00636592 -0.00754101)
(0.128813 0.00956049 -0.00821176)
(0.133298 0.0115319 -0.00692429)
(0.134915 0.010403 -0.00403498)
(0.134685 0.00788123 -0.00316091)
(0.133913 0.00687917 -0.00405334)
(0.13288 0.00805058 -0.00395227)
(0.132229 0.00893193 -0.00142346)
(0.132268 0.00758603 0.00273722)
(0.133445 0.00530829 0.00661363)
(0.13655 0.00374294 0.00955686)
(0.139062 0.00180649 0.00917902)
(0.13754 -0.00106926 0.00290483)
(0.134425 -0.00265907 -0.00520435)
(0.136633 -0.00136158 -0.00806152)
(0.144612 0.00253276 -0.00516341)
(0.150937 0.00758736 -0.00159142)
(0.150134 0.0102011 -5.57358e-05)
(0.144446 0.00840743 -5.08665e-05)
(0.140012 0.0036724 -0.000847027)
(0.140301 -0.000928083 -0.00182389)
(0.14414 -0.00466232 0.000129754)
(0.143057 -0.00400723 0.00158714)
(0.137611 -0.00154568 0.00393783)
(0.12996 0.00117676 0.00637539)
(0.124678 0.00322711 0.00735802)
(0.123163 0.00405214 0.00471273)
(0.124208 0.00443908 -0.0013242)
(0.127104 0.00451108 -0.00777972)
(0.133062 0.0036427 -0.0109261)
(0.142074 0.00172922 -0.00883707)
(0.147771 -0.0011801 -0.0038855)
(0.144653 -0.00370803 -0.00152946)
(0.13515 -0.00381206 -0.00346457)
(0.125697 -0.0012391 -0.00477612)
(0.120766 0.00234613 -0.00183708)
(0.119762 0.00483742 0.0021692)
(0.120262 0.00639721 0.00374647)
(0.121062 0.00719855 0.00310471)
(0.122753 0.00695212 0.00289382)
(0.126156 0.00701492 0.00463178)
(0.130765 0.00801904 0.00638751)
(0.135346 0.00843876 0.00643746)
(0.136199 0.00779262 0.00464167)
(0.133541 0.00723943 0.00119746)
(0.131737 0.00819183 -0.00108209)
(0.132675 0.0107933 0.000106549)
(0.135044 0.0129435 0.00403729)
(0.136315 0.0121422 0.0082767)
(0.135793 0.00844844 0.0105132)
(0.136956 0.00495898 0.0115871)
(0.141084 0.00371677 0.0118176)
(0.143636 0.00279432 0.00805192)
(0.140828 0.00101229 0.000130262)
(0.136514 -1.59032e-05 -0.00620215)
(0.136884 0.00108976 -0.00743289)
(0.141946 0.00504195 -0.00614247)
(0.146235 0.00950885 -0.00538255)
(0.146984 0.0104032 -0.00465991)
(0.145377 0.00596598 -0.00236398)
(0.143821 -0.000855924 -0.000463999)
(0.144481 -0.00462112 -0.0013893)
(0.141991 -0.00416608 -0.00032029)
(0.138778 -0.000760346 0.00128901)
(0.135692 0.00295272 0.00367264)
(0.132833 0.00538273 0.00470896)
(0.129853 0.00596397 0.00208095)
(0.126828 0.00526229 -0.00391418)
(0.125215 0.00368313 -0.010763)
(0.127299 0.00128145 -0.0153376)
(0.135322 -0.000956139 -0.0150711)
(0.145445 -0.00186329 -0.00995336)
(0.149056 -0.00209471 -0.00467772)
(0.142451 -0.00226112 -0.00342209)
(0.130715 -0.00149929 -0.00422747)
(0.121614 0.000867027 -0.00290925)
(0.118268 0.00356535 0.000423762)
(0.119445 0.00573756 0.00327659)
(0.122492 0.00681666 0.00432441)
(0.12636 0.00637219 0.00475505)
(0.131175 0.00549073 0.00696741)
(0.134961 0.00566936 0.00986382)
(0.136378 0.00702288 0.0101271)
(0.134356 0.00856487 0.00717557)
(0.130703 0.00906974 0.00289553)
(0.129572 0.00903207 0.000786198)
(0.131474 0.00993105 0.00240584)
(0.134506 0.0117646 0.00539169)
(0.137064 0.012135 0.00729673)
(0.138103 0.00846671 0.00760719)
(0.138949 0.00280103 0.00836505)
(0.142296 4.28505e-05 0.0105511)
(0.147435 0.00118663 0.0105874)
(0.149225 0.0031451 0.00560981)
(0.1449 0.00376978 -0.00138559)
(0.138369 0.00338485 -0.00609583)
(0.135289 0.00363692 -0.0074032)
(0.136384 0.00481022 -0.00692581)
(0.139522 0.00523261 -0.00647213)
(0.143024 0.0031333 -0.00532869)
(0.144893 -0.00124085 -0.00313503)
(0.146256 -0.00791037 -0.00286115)
(0.146025 -0.00491962 0.000181157)
(0.142239 -0.000615583 0.000863392)
(0.137808 0.00328707 0.000121128)
(0.135212 0.0061905 -0.000827804)
(0.135715 0.00741827 -0.00168197)
(0.138188 0.00668008 -0.00317056)
(0.140395 0.00413283 -0.00630803)
(0.14145 -0.000137919 -0.0109968)
(0.142567 -0.00489246 -0.0154964)
(0.145739 -0.00755803 -0.015684)
(0.150366 -0.00692965 -0.00979909)
(0.151963 -0.00431008 -0.00241057)
(0.147562 -0.00139349 0.00128063)
(0.139446 0.00109123 0.000909052)
(0.132221 0.00285541 -0.00130251)
(0.128862 0.00376034 -0.00344608)
(0.128792 0.00316109 -0.00401582)
(0.129924 0.00157389 -0.00280006)
(0.131242 0.00102042 -8.48667e-05)
(0.131183 0.00251635 0.00293443)
(0.129645 0.00488481 0.00440132)
(0.127702 0.00567591 0.00410534)
(0.1265 0.00495 0.00221981)
(0.127869 0.00530414 0.000363641)
(0.131556 0.00821919 0.000719597)
(0.135848 0.0125042 0.0024923)
(0.139647 0.0138388 0.00393819)
(0.1419 0.00907315 0.00417916)
(0.141887 0.00152433 0.00357706)
(0.141934 -0.00278728 0.00419607)
(0.145073 -0.00161429 0.00563061)
(0.149716 0.00266139 0.00500903)
(0.150777 0.00625283 0.00139981)
(0.147076 0.00741563 -0.00380019)
(0.142245 0.0065883 -0.00774831)
(0.139446 0.00442765 -0.00908903)
(0.138623 0.000949271 -0.00951937)
(0.139868 -0.00365355 -0.00920765)
(0.143029 -0.00740012 -0.00679697)
(0.143246 -0.00685933 -0.00589728)
(0.143292 -0.0047589 -0.00184503)
(0.143012 -0.000764668 0.00204137)
(0.142099 0.00273053 0.00436301)
(0.140708 0.00465557 0.00384788)
(0.14051 0.00485367 0.000879571)
(0.142823 0.00395447 -0.00277893)
(0.14747 0.00237295 -0.0055212)
(0.153063 -0.000743491 -0.00735517)
(0.157163 -0.00534202 -0.00994904)
(0.15847 -0.00857502 -0.0128488)
(0.157863 -0.00772086 -0.012613)
(0.155961 -0.0037498 -0.00776133)
(0.152913 1.50777e-06 -0.00116584)
(0.150744 0.000497731 0.00310277)
(0.151155 -0.00214506 0.00315288)
(0.153055 -0.00428892 -0.00023942)
(0.153685 -0.00343915 -0.00415043)
(0.150706 -0.000481511 -0.00620584)
(0.144705 0.00211401 -0.0056678)
(0.138129 0.00285524 -0.00286641)
(0.133862 0.00196687 0.000624758)
(0.13292 -0.000517093 0.00299216)
(0.133365 -0.00287719 0.00256807)
(0.134228 -0.00204244 -0.000275096)
(0.136058 0.00268196 -0.00229857)
(0.139114 0.00850304 -0.00118636)
(0.143073 0.0107113 0.00248517)
(0.146382 0.00698209 0.00562166)
(0.146768 0.000783872 0.00525369)
(0.144752 -0.00302547 0.00289686)
(0.143086 -0.00258555 0.00149911)
(0.143008 0.000945302 0.00143639)
(0.143683 0.00446586 0.00130329)
(0.144687 0.00634469 -0.000779952)
(0.14594 0.00681605 -0.00520146)
(0.147125 0.00582549 -0.00929429)
(0.147018 0.00310333 -0.0109518)
(0.145516 -0.00131866 -0.0105465)
(0.143848 -0.00544807 -0.00891389)
(0.147196 -0.00438762 -0.0105681)
(0.144676 -0.0028043 -0.00825664)
(0.142179 0.000788874 -0.00302995)
(0.140634 0.00428573 0.00292982)
(0.140822 0.00637802 0.00593086)
(0.142698 0.00645597 0.00441447)
(0.144947 0.0044338 -0.000236302)
(0.146818 0.00107717 -0.00496474)
(0.14942 -0.00306525 -0.00710547)
(0.153123 -0.00714269 -0.00667724)
(0.156684 -0.00946435 -0.00586119)
(0.158726 -0.00833322 -0.00577971)
(0.158832 -0.00440154 -0.00566803)
(0.158009 -0.000513782 -0.00461137)
(0.157519 0.000325655 -0.00250481)
(0.15722 -0.00249353 -8.206e-05)
(0.155775 -0.0060133 0.000944073)
(0.152774 -0.00694582 -0.000172146)
(0.149423 -0.00466987 -0.00300065)
(0.147483 -0.00128212 -0.00636041)
(0.147127 0.00106451 -0.00787717)
(0.147959 0.00183159 -0.00650532)
(0.149847 0.000829353 -0.00361452)
(0.150892 -0.000888972 -0.00198233)
(0.149662 -0.00137611 -0.00277434)
(0.147324 0.000136812 -0.00339495)
(0.145924 0.0029056 -0.0014872)
(0.146379 0.00478281 0.00233282)
(0.147472 0.00423672 0.00500537)
(0.146805 0.00254678 0.00440949)
(0.144736 0.00125997 0.00145417)
(0.143712 0.000836904 -0.00125475)
(0.144699 0.00137886 -0.00221013)
(0.146961 0.00192492 -0.00153956)
(0.149575 0.00200171 -0.000932243)
(0.151084 0.00177104 -0.00208441)
(0.15139 0.00129181 -0.00443665)
(0.151218 0.000541494 -0.00650395)
(0.150538 -0.00113331 -0.00830383)
(0.149201 -0.00339533 -0.0100215)
(0.146878 -0.00343672 -0.00519637)
(0.148282 -0.00275818 -0.00541049)
(0.149678 -0.000671579 -0.00464824)
(0.150523 0.00135221 -0.00280649)
(0.150215 0.00266798 -0.000493386)
(0.14917 0.003406 0.00133196)
(0.148347 0.00342677 0.00161057)
(0.147993 0.00214748 0.000219165)
(0.148284 -0.000947663 -0.00163911)