/*--------------------------------*- C++ -*----------------------------------*\
| =========                 |                                                 |
| \\      /  F ield         | OpenFOAM: The Open Source CFD Toolbox           |
|  \\    /   O peration     | Version:  2.3.0                                 |
|   \\  /    A nd           | Web:      www.OpenFOAM.org                      |
|    \\/     M anipulation  |                                                 |
\*---------------------------------------------------------------------------*/
FoamFile
{
    version     2.0;
    format      ascii;
    class       volVectorField;
    location    "200";
    object      UMean;
}
// * * * * * * * * * * * * * * * * * * * * * * * * * * * * * * * * * * * * * //

dimensions      [0 1 -1 0 0 0 0];

internalField   nonuniform List<vector> 
60000
(
(0.0127955 -1.48433e-06 -0.000826774)
(0.0128827 7.14061e-07 -0.000766826)
(0.0128961 2.63623e-06 -0.00067703)
(0.0128414 4.38344e-06 -0.000556191)
(0.0127467 5.31914e-06 -0.000424041)
(0.0126365 5.56859e-06 -0.000300755)
(0.0125039 6.04757e-06 -0.00020601)
(0.0123466 6.77824e-06 -0.000146685)
(0.0121658 6.22191e-06 -0.000106267)
(0.0119856 3.67252e-06 -6.21078e-05)
(0.0118173 1.00926e-06 -1.02184e-05)
(0.0116833 -1.10051e-06 4.31509e-05)
(0.0115845 -2.06428e-06 8.18415e-05)
(0.0115288 -2.32283e-06 9.4143e-05)
(0.0115154 -3.2101e-06 7.7085e-05)
(0.0115487 -4.24455e-06 3.49969e-05)
(0.0116045 -3.52435e-06 -2.0466e-05)
(0.0116714 -1.61519e-06 -7.08207e-05)
(0.0117391 1.29354e-06 -0.000117099)
(0.0118127 4.24021e-06 -0.000164834)
(0.0118842 6.48998e-06 -0.000208915)
(0.011973 7.68837e-06 -0.000239984)
(0.0120668 9.15385e-06 -0.000245731)
(0.0121727 1.013e-05 -0.000232808)
(0.012263 1.07947e-05 -0.000216849)
(0.0123272 1.00287e-05 -0.000201651)
(0.0123586 1.01997e-05 -0.00021489)
(0.0123727 1.01446e-05 -0.000265284)
(0.0123562 1.07916e-05 -0.000334)
(0.0123105 1.21472e-05 -0.00040815)
(0.0122494 1.32676e-05 -0.000493717)
(0.0121933 1.26677e-05 -0.000585766)
(0.0121528 1.04953e-05 -0.000673618)
(0.0121522 8.02049e-06 -0.000750754)
(0.0122044 6.63658e-06 -0.000804753)
(0.0122819 6.37903e-06 -0.000844365)
(0.0123503 6.14944e-06 -0.000878447)
(0.0124129 3.91329e-06 -0.000899469)
(0.0125142 4.89458e-07 -0.000895022)
(0.0126606 -1.99593e-06 -0.000867201)
(0.0383305 -8.07317e-05 -0.00130172)
(0.0385859 -6.81419e-05 -0.00117491)
(0.0386911 -4.96579e-05 -0.00102934)
(0.038654 -3.09199e-05 -0.000865032)
(0.0385057 -1.5255e-05 -0.000702322)
(0.038285 6.87845e-08 -0.000547801)
(0.0379769 1.48637e-05 -0.000413101)
(0.0375765 2.79349e-05 -0.000313627)
(0.0370798 3.40327e-05 -0.000239317)
(0.0365645 3.12622e-05 -0.000167631)
(0.0360674 2.27274e-05 -9.68961e-05)
(0.0356479 1.62665e-05 -3.5218e-05)
(0.0353242 1.27254e-05 -1.54925e-05)
(0.0351338 8.34956e-06 -6.40327e-05)
(0.0350558 -2.35786e-06 -0.000176531)
(0.0350958 -1.6594e-05 -0.000319483)
(0.0352008 -2.73565e-05 -0.000447884)
(0.035342 -3.29356e-05 -0.000535168)
(0.0355044 -3.3881e-05 -0.000596723)
(0.0357126 -3.30095e-05 -0.00064494)
(0.0359103 -3.15983e-05 -0.000680306)
(0.0361285 -3.19225e-05 -0.000703465)
(0.0363528 -3.18107e-05 -0.000700428)
(0.0366307 -2.97647e-05 -0.000677424)
(0.0368868 -2.6122e-05 -0.000653168)
(0.0370881 -2.48687e-05 -0.000625993)
(0.0372041 -2.7267e-05 -0.00065623)
(0.0372466 -3.12264e-05 -0.000751912)
(0.0371777 -3.02588e-05 -0.000878132)
(0.0370243 -2.52866e-05 -0.00102136)
(0.0368567 -1.89257e-05 -0.00119032)
(0.0367307 -1.51727e-05 -0.00135484)
(0.0366432 -1.75689e-05 -0.00148261)
(0.0366421 -2.45608e-05 -0.00158275)
(0.0367623 -3.5356e-05 -0.0016493)
(0.0369589 -4.28939e-05 -0.0016828)
(0.0371637 -4.35603e-05 -0.00168053)
(0.0373668 -4.94555e-05 -0.00163118)
(0.037632 -6.51128e-05 -0.00153648)
(0.0379883 -8.03815e-05 -0.00141882)
(0.0612952 -0.000203569 -0.000949834)
(0.0616163 -0.000180085 -0.000811741)
(0.0618217 -0.000141772 -0.000695979)
(0.0619139 -9.74753e-05 -0.00060448)
(0.0618816 -4.96171e-05 -0.00053535)
(0.0617412 1.71892e-06 -0.000467324)
(0.0614498 4.6192e-05 -0.000402998)
(0.0610119 7.99253e-05 -0.000362723)
(0.0604085 9.82206e-05 -0.000341788)
(0.0597434 9.88723e-05 -0.000339632)
(0.0590778 8.7575e-05 -0.000358641)
(0.0585044 7.55168e-05 -0.000391209)
(0.0580716 6.28955e-05 -0.000469524)
(0.0578676 4.412e-05 -0.000627189)
(0.0578277 1.54715e-05 -0.00083708)
(0.0579089 -2.07027e-05 -0.00101585)
(0.058025 -5.18505e-05 -0.00110132)
(0.0581422 -7.47054e-05 -0.00109629)
(0.0582595 -9.26641e-05 -0.00106015)
(0.0584552 -0.000104467 -0.00100384)
(0.0586541 -0.000106568 -0.000939047)
(0.0588902 -0.000108655 -0.000896888)
(0.0591441 -0.000109877 -0.000864981)
(0.0594819 -0.000109552 -0.000823331)
(0.0598044 -0.000108091 -0.000787619)
(0.0600865 -0.000111382 -0.000796097)
(0.0602493 -0.000116254 -0.000893336)
(0.0602519 -0.000117716 -0.00103101)
(0.0600651 -0.000112129 -0.00116095)
(0.0597797 -0.000107654 -0.00128369)
(0.0595048 -0.000106634 -0.00141973)
(0.059317 -0.000103472 -0.00154432)
(0.0591922 -0.000102088 -0.00162955)
(0.0591802 -0.000112078 -0.00167877)
(0.0593022 -0.000133471 -0.0016853)
(0.0595391 -0.000150677 -0.00165153)
(0.0598283 -0.00015755 -0.00157589)
(0.0601605 -0.000167719 -0.00145076)
(0.060519 -0.000188428 -0.00128079)
(0.0609237 -0.000205785 -0.00110175)
(0.078904 -0.000284439 -0.000435829)
(0.0792476 -0.000254013 -0.000325008)
(0.0795277 -0.000206877 -0.000251354)
(0.0797339 -0.000145409 -0.000198392)
(0.0797909 -7.3073e-05 -0.000157517)
(0.0797019 8.4111e-08 -0.000124161)
(0.0794433 6.40135e-05 -0.000133381)
(0.0790697 0.000117467 -0.000209849)
(0.0785623 0.000158128 -0.000329569)
(0.0779992 0.000169992 -0.000490497)
(0.0774157 0.000166884 -0.000696315)
(0.0769224 0.000152636 -0.000909214)
(0.0766077 0.000128313 -0.00111245)
(0.0765891 9.10893e-05 -0.00130573)
(0.0767526 4.20008e-05 -0.00146628)
(0.0770006 -1.82261e-05 -0.00153505)
(0.0771956 -6.90876e-05 -0.00149644)
(0.0773043 -0.000107964 -0.00138037)
(0.0773409 -0.000142614 -0.00124189)
(0.0774326 -0.000170936 -0.00108116)
(0.0775776 -0.000185111 -0.000901247)
(0.0778095 -0.000195705 -0.000755221)
(0.0780953 -0.000204503 -0.000693976)
(0.0784702 -0.0002119 -0.000698964)
(0.078847 -0.000225431 -0.000772047)
(0.0791936 -0.000238559 -0.000915506)
(0.0793205 -0.000233513 -0.00106332)
(0.0791503 -0.000213921 -0.00115673)
(0.0787266 -0.000186963 -0.00120734)
(0.078222 -0.000179247 -0.00123087)
(0.0777114 -0.000182877 -0.0012412)
(0.0773004 -0.000182926 -0.00126206)
(0.0769792 -0.000181835 -0.00128589)
(0.07681 -0.000203363 -0.00127411)
(0.076798 -0.00024147 -0.0012036)
(0.0769924 -0.000271514 -0.00109485)
(0.0773282 -0.000278047 -0.000975652)
(0.0777551 -0.0002819 -0.000846238)
(0.0781489 -0.000295266 -0.000703223)
(0.0785505 -0.000299905 -0.000559952)
(0.0914133 -0.000374991 -0.000310344)
(0.0917488 -0.000342332 -0.000255234)
(0.0920329 -0.000294961 -0.000184596)
(0.0922659 -0.000231242 -9.78134e-05)
(0.0923306 -0.000158306 -5.32513e-06)
(0.0922809 -8.2343e-05 7.75558e-05)
(0.0921183 -1.6882e-05 9.0622e-05)
(0.0919179 5.08513e-05 -1.30469e-05)
(0.0916544 0.000109538 -0.000195104)
(0.0914103 0.000138348 -0.000424207)
(0.0911621 0.000145367 -0.000690369)
(0.090962 0.00013087 -0.000965918)
(0.0908774 9.99215e-05 -0.00114787)
(0.0910446 5.56588e-05 -0.00118489)
(0.0913345 -4.97958e-07 -0.00112585)
(0.0916724 -6.15756e-05 -0.00105692)
(0.0919289 -0.000119657 -0.00100381)
(0.0920817 -0.000164737 -0.000932256)
(0.0921268 -0.000201238 -0.000821491)
(0.0921571 -0.000243638 -0.000664896)
(0.0922459 -0.000288876 -0.000490537)
(0.0924471 -0.000340472 -0.000386533)
(0.0927204 -0.000397361 -0.000418818)
(0.0930993 -0.000449658 -0.000555553)
(0.0935089 -0.000478674 -0.000765916)
(0.0938485 -0.000470894 -0.000946052)
(0.0938459 -0.000428794 -0.000995383)
(0.0935145 -0.000377515 -0.000937139)
(0.0929318 -0.000329555 -0.000844121)
(0.0922768 -0.000309465 -0.000756912)
(0.0915446 -0.000302337 -0.000687071)
(0.0908783 -0.000303642 -0.000687848)
(0.0903311 -0.000313928 -0.000749523)
(0.0900141 -0.000348804 -0.00077032)
(0.0898523 -0.000390228 -0.000707788)
(0.0899065 -0.000419304 -0.00059964)
(0.090115 -0.00041721 -0.000502978)
(0.0904506 -0.000408682 -0.00042285)
(0.0907598 -0.000407453 -0.000368444)
(0.0911059 -0.000399719 -0.000335718)
(0.100402 -0.000504338 -0.000563893)
(0.100614 -0.000470962 -0.000495619)
(0.100822 -0.00043457 -0.000371046)
(0.101034 -0.000388938 -0.000250046)
(0.101147 -0.000325566 -0.000154707)
(0.101265 -0.000252505 -6.1662e-05)
(0.101376 -0.000178662 2.60406e-05)
(0.101529 -0.000103259 6.65934e-05)
(0.101662 -4.03461e-05 5.60746e-05)
(0.101841 1.8566e-08 1.57623e-05)
(0.101989 3.69875e-05 -1.43631e-05)
(0.102063 4.97531e-05 -5.20591e-05)
(0.102053 2.39232e-05 -4.6701e-05)
(0.102141 -3.42539e-05 2.12448e-05)
(0.102298 -0.000103999 9.62375e-05)
(0.102542 -0.000162856 9.64997e-05)
(0.102761 -0.000206064 4.77149e-05)
(0.102962 -0.000241146 4.59446e-05)
(0.103067 -0.000284707 0.000130272)
(0.103104 -0.000346945 0.000255118)
(0.103104 -0.000433915 0.000330667)
(0.103159 -0.000532635 0.000290782)
(0.103264 -0.000638651 0.000146721)
(0.103432 -0.000723048 -3.3901e-05)
(0.103589 -0.000758038 -0.000215984)
(0.103707 -0.000747015 -0.000306436)
(0.103626 -0.00069612 -0.00027021)
(0.103383 -0.000633088 -0.000141917)
(0.102958 -0.000572887 -7.77062e-06)
(0.10245 -0.000523492 7.64152e-05)
(0.10183 -0.000484891 9.79835e-05)
(0.101184 -0.000469761 4.23647e-05)
(0.100598 -0.000470154 -7.73255e-05)
(0.10025 -0.00048645 -0.000188208)
(0.100048 -0.000510922 -0.000242733)
(0.100003 -0.000528652 -0.000266593)
(0.100013 -0.000534258 -0.000294583)
(0.100098 -0.000536299 -0.000345785)
(0.100145 -0.00054354 -0.000431376)
(0.100267 -0.000535333 -0.000523533)
(0.107603 -0.000678067 -0.000381641)
(0.10772 -0.000625661 -0.000287375)
(0.107851 -0.000588898 -0.000184596)
(0.108071 -0.000561278 -0.000115702)
(0.108298 -0.000512692 -8.17441e-05)
(0.108609 -0.000462579 -3.47224e-05)
(0.108948 -0.00040556 8.86792e-05)
(0.109351 -0.000351958 0.000253117)
(0.109729 -0.000300867 0.000386357)
(0.110138 -0.000252377 0.000469174)
(0.110474 -0.000186834 0.000549028)
(0.110674 -0.000129672 0.000596892)
(0.110653 -0.000118677 0.000602561)
(0.110571 -0.000154529 0.000568925)
(0.110509 -0.000207857 0.000568487)
(0.110555 -0.000256546 0.000603888)
(0.110627 -0.000294348 0.000658097)
(0.110745 -0.000335289 0.000720439)
(0.110819 -0.000390774 0.000792566)
(0.110833 -0.000466468 0.000851253)
(0.110758 -0.000565655 0.000891056)
(0.110685 -0.000672184 0.000894155)
(0.110631 -0.000788882 0.000867968)
(0.110609 -0.000885753 0.00083092)
(0.110556 -0.000941362 0.000794984)
(0.110558 -0.000951011 0.000782598)
(0.110558 -0.00092612 0.00078534)
(0.110527 -0.000888893 0.000787141)
(0.110358 -0.000853721 0.000764737)
(0.110082 -0.000808121 0.000727079)
(0.109698 -0.000758854 0.000699841)
(0.109218 -0.00072923 0.000651053)
(0.108666 -0.000720651 0.00055566)
(0.108223 -0.00072547 0.000437477)
(0.107939 -0.000736206 0.000326401)
(0.107804 -0.000745746 0.000197299)
(0.107713 -0.000753078 3.36033e-05)
(0.107643 -0.000764761 -0.000151227)
(0.107555 -0.000764927 -0.000311415)
(0.107552 -0.000735015 -0.000398136)
(0.113429 -0.000706677 0.000115261)
(0.113582 -0.00064034 1.74789e-05)
(0.113757 -0.000588133 -7.41815e-05)
(0.114034 -0.000555219 -0.00014221)
(0.114375 -0.000525442 -0.000171197)
(0.114824 -0.000490373 -0.000145287)
(0.115243 -0.000467402 -3.00962e-05)
(0.11563 -0.000475752 0.000133161)
(0.115929 -0.000507466 0.000250491)
(0.116213 -0.000535376 0.000259929)
(0.116466 -0.000531616 0.000208899)
(0.116694 -0.000479177 0.000118614)
(0.116776 -0.000401554 3.31648e-05)
(0.116709 -0.000344102 -1.30901e-05)
(0.116545 -0.000315822 7.91172e-05)
(0.116435 -0.000323303 0.000301262)
(0.116359 -0.000348183 0.000545729)
(0.116357 -0.000391055 0.00070758)
(0.116328 -0.00043152 0.000787735)
(0.116275 -0.00048814 0.000829904)
(0.116168 -0.000567115 0.000923956)
(0.11606 -0.000666709 0.00106677)
(0.115944 -0.000780403 0.0012011)
(0.115863 -0.00089021 0.00128093)
(0.115784 -0.00097861 0.00131261)
(0.115815 -0.00103554 0.00132)
(0.115936 -0.0010635 0.00132731)
(0.116082 -0.00107427 0.0013253)
(0.116126 -0.00106969 0.00129873)
(0.116049 -0.00103373 0.00128334)
(0.115829 -0.00097542 0.00131112)
(0.115493 -0.000926618 0.00134327)
(0.115009 -0.000909029 0.0013129)
(0.114498 -0.000921922 0.00120373)
(0.11409 -0.000934141 0.00105948)
(0.113851 -0.000943095 0.000893521)
(0.113683 -0.000926415 0.000695381)
(0.113547 -0.000892168 0.000491923)
(0.113429 -0.000833265 0.000330694)
(0.113378 -0.000770591 0.000210743)
(0.117816 -0.00065499 9.40252e-05)
(0.117927 -0.000606627 -0.00018875)
(0.118143 -0.000561089 -0.000360272)
(0.118433 -0.000561866 -0.000402844)
(0.11873 -0.000584652 -0.000347268)
(0.11907 -0.000602734 -0.000260964)
(0.119391 -0.000607907 -0.000157109)
(0.119672 -0.000629358 -5.95213e-05)
(0.119838 -0.000671064 1.54417e-06)
(0.119961 -0.000707503 -4.34879e-06)
(0.120103 -0.000713994 -3.69191e-05)
(0.120338 -0.000665059 -6.99946e-05)
(0.120556 -0.00057434 -7.20862e-05)
(0.120658 -0.00049425 -4.82992e-05)
(0.120591 -0.00044533 4.68306e-05)
(0.120489 -0.000418464 0.000243568)
(0.120388 -0.00040976 0.000508444)
(0.120353 -0.000419282 0.000720934)
(0.1203 -0.000437931 0.000848375)
(0.120249 -0.000466885 0.000918147)
(0.120163 -0.000518266 0.00103486)
(0.120056 -0.0005889 0.00120918)
(0.119908 -0.000680525 0.00139507)
(0.119792 -0.000781058 0.00153794)
(0.119681 -0.000885413 0.0016228)
(0.119648 -0.000984193 0.00164144)
(0.119701 -0.00105807 0.0016454)
(0.119809 -0.00109562 0.00165593)
(0.119891 -0.00110022 0.00166551)
(0.119926 -0.00107345 0.00166688)
(0.119874 -0.00101887 0.00168459)
(0.119758 -0.000949379 0.00171058)
(0.119542 -0.000893163 0.00170177)
(0.119257 -0.000869514 0.00158977)
(0.118938 -0.000865204 0.00141308)
(0.118665 -0.000868575 0.00122103)
(0.118425 -0.000846242 0.00104119)
(0.118225 -0.000797556 0.000862464)
(0.118032 -0.000743619 0.000662662)
(0.117869 -0.00069792 0.000401011)
(0.12128 -0.000647561 0.000271568)
(0.121206 -0.000656647 2.24043e-05)
(0.121233 -0.000646581 -0.000178704)
(0.121372 -0.000655306 -0.000298088)
(0.121512 -0.000682228 -0.000324383)
(0.121675 -0.000711319 -0.00030875)
(0.121876 -0.000713805 -0.000259081)
(0.122123 -0.00071143 -0.000205182)
(0.122325 -0.000722808 -0.000150572)
(0.122486 -0.000751303 -0.000114432)
(0.122674 -0.000781304 -5.99645e-05)
(0.122947 -0.000774493 2.58457e-05)
(0.123246 -0.000720304 0.000155459)
(0.123489 -0.00065119 0.000281416)
(0.123566 -0.000599366 0.000410127)
(0.123511 -0.000562188 0.000567256)
(0.123376 -0.000545016 0.000794531)
(0.1233 -0.000541469 0.00101126)
(0.123278 -0.00055359 0.00117516)
(0.1233 -0.000559373 0.00124831)
(0.123311 -0.000572049 0.00131625)
(0.123288 -0.000590833 0.00142117)
(0.123185 -0.00062636 0.00156081)
(0.123066 -0.000677972 0.00167756)
(0.12295 -0.00073863 0.00175562)
(0.122855 -0.000811173 0.00175425)
(0.12278 -0.000878286 0.00172708)
(0.12271 -0.000914113 0.00169815)
(0.122644 -0.00091118 0.00166919)
(0.12261 -0.000890614 0.00163974)
(0.122574 -0.000858159 0.0016269)
(0.122522 -0.000808224 0.00161369)
(0.122457 -0.000745214 0.00158495)
(0.122381 -0.000691294 0.00147801)
(0.122247 -0.000657051 0.0013134)
(0.122089 -0.000643056 0.00111834)
(0.12192 -0.000639558 0.000946213)
(0.121769 -0.00063204 0.000787669)
(0.121607 -0.000628434 0.000649225)
(0.121441 -0.000634872 0.000482677)
(0.124205 -0.000450763 4.5684e-05)
(0.124076 -0.000470378 -6.36648e-05)
(0.123948 -0.000461874 -0.000204864)
(0.12389 -0.000446569 -0.000363047)
(0.123875 -0.000452972 -0.000479979)
(0.123911 -0.000483512 -0.00056538)
(0.124034 -0.000518194 -0.00057667)
(0.124262 -0.00055166 -0.000532016)
(0.124543 -0.000586951 -0.000429729)
(0.124804 -0.000642894 -0.000320546)
(0.125047 -0.000716437 -0.000194242)
(0.1253 -0.00078332 -6.67629e-05)
(0.125576 -0.000798438 8.66576e-05)
(0.125841 -0.000767768 0.000209083)
(0.126014 -0.000713703 0.000295472)
(0.126022 -0.000680226 0.000374877)
(0.12589 -0.000670275 0.000508284)
(0.125739 -0.000683082 0.000675508)
(0.125677 -0.0006936 0.00086374)
(0.125698 -0.000705991 0.00100406)
(0.125739 -0.000712377 0.00112377)
(0.125757 -0.000718394 0.00125107)
(0.125719 -0.000709077 0.00139347)
(0.125634 -0.000690995 0.00150439)
(0.125533 -0.000656548 0.00156605)
(0.125437 -0.000618798 0.00153656)
(0.125355 -0.000593895 0.00146849)
(0.125247 -0.000570892 0.00138613)
(0.125122 -0.000539784 0.00132321)
(0.125011 -0.000499186 0.00126365)
(0.124911 -0.000463543 0.00123824)
(0.124773 -0.000427079 0.001209)
(0.124647 -0.000395941 0.00117594)
(0.124571 -0.00036611 0.00107328)
(0.124543 -0.000343823 0.000915712)
(0.124525 -0.000335249 0.00071071)
(0.124494 -0.000351592 0.000522263)
(0.124454 -0.000372328 0.000345929)
(0.124388 -0.000392059 0.000223314)
(0.124312 -0.000416982 0.000121803)
(0.127153 -0.000257102 -0.000385915)
(0.127133 -0.000291092 -0.000393957)
(0.127072 -0.000298505 -0.000420693)
(0.126976 -0.000301001 -0.000495439)
(0.12689 -0.000314075 -0.000577582)
(0.126838 -0.000344873 -0.000643863)
(0.126876 -0.000382588 -0.000628754)
(0.126995 -0.000417537 -0.000536444)
(0.127199 -0.00044105 -0.000385895)
(0.127418 -0.000477325 -0.000226532)
(0.127631 -0.000538449 -8.17438e-05)
(0.127796 -0.000619619 4.3783e-05)
(0.127965 -0.000685006 0.000162954)
(0.128126 -0.000709082 0.000229907)
(0.12828 -0.000687432 0.000215753)
(0.12835 -0.000658082 0.000142956)
(0.128303 -0.000636561 9.73528e-05)
(0.128163 -0.000642434 0.000108779)
(0.128021 -0.000652895 0.000198875)
(0.127951 -0.00067159 0.000299135)
(0.127917 -0.0006812 0.000411761)
(0.127909 -0.000684219 0.000532799)
(0.127877 -0.000672078 0.000688234)
(0.127829 -0.000639263 0.00084594)
(0.127745 -0.000578951 0.000971058)
(0.127654 -0.000505374 0.00100258)
(0.127576 -0.000427622 0.000958208)
(0.127485 -0.000352188 0.000865863)
(0.127365 -0.000277 0.000768154)
(0.127243 -0.000205943 0.000677431)
(0.127146 -0.000137775 0.000622513)
(0.127019 -7.33385e-05 0.000596071)
(0.126887 -2.22621e-05 0.000577227)
(0.12679 9.07009e-06 0.000516029)
(0.126813 2.49434e-05 0.00039325)
(0.126902 8.3226e-06 0.000223332)
(0.127006 -3.53965e-05 3.93299e-05)
(0.12708 -9.79733e-05 -0.000134494)
(0.127123 -0.000155114 -0.000269483)
(0.127141 -0.000209796 -0.000357551)
(0.129808 7.96263e-05 -0.00057176)
(0.129887 2.36078e-05 -0.000581426)
(0.12994 -2.30511e-05 -0.000575411)
(0.129922 -4.58528e-05 -0.000572969)
(0.129859 -7.37827e-05 -0.000576213)
(0.1298 -0.000103062 -0.000576257)
(0.129812 -0.000150214 -0.000548265)
(0.129867 -0.000195004 -0.000482237)
(0.129994 -0.000244022 -0.000387723)
(0.130135 -0.000286347 -0.000298672)
(0.13028 -0.000348109 -0.000231287)
(0.130362 -0.000408337 -0.00017622)
(0.130434 -0.000454207 -0.000115414)
(0.130492 -0.000459723 -6.4986e-05)
(0.130571 -0.000421194 -4.91471e-05)
(0.130622 -0.000358146 -7.35905e-05)
(0.130635 -0.000299691 -9.65717e-05)
(0.13058 -0.000267271 -8.74014e-05)
(0.130493 -0.000268977 -3.05486e-05)
(0.130408 -0.000288628 2.59677e-05)
(0.130346 -0.00030623 7.72932e-05)
(0.130325 -0.000319777 0.000125473)
(0.13027 -0.000321667 0.000202333)
(0.130205 -0.000308904 0.00031457)
(0.130092 -0.000264146 0.000427609)
(0.129976 -0.000204383 0.000487793)
(0.129853 -0.000128422 0.000488961)
(0.129736 -5.10015e-05 0.000434629)
(0.129588 3.10443e-05 0.00034594)
(0.129445 9.45286e-05 0.000249106)
(0.129328 0.000157328 0.000179995)
(0.129217 0.000214662 0.000141076)
(0.129114 0.000274645 0.000123148)
(0.129023 0.000320891 8.93504e-05)
(0.129024 0.000351127 1.7572e-05)
(0.129139 0.000353054 -9.09756e-05)
(0.129315 0.000330419 -0.000216765)
(0.129501 0.000286909 -0.000342295)
(0.129632 0.000227762 -0.000445923)
(0.129734 0.000155955 -0.000529212)
(0.131996 0.00036813 -0.000121804)
(0.132142 0.000318883 -0.000174425)
(0.132267 0.00028004 -0.000212173)
(0.132316 0.000237602 -0.000239732)
(0.132288 0.000199887 -0.00024453)
(0.132223 0.000140025 -0.000248741)
(0.132205 6.43879e-05 -0.000247238)
(0.132202 -2.43781e-05 -0.000244813)
(0.13225 -0.000105264 -0.000217537)
(0.132293 -0.000167955 -0.000181947)
(0.132371 -0.000214292 -0.000158346)
(0.132404 -0.000260643 -0.000157086)
(0.13244 -0.000295319 -0.000147393)
(0.132438 -0.000303936 -0.000115037)
(0.132474 -0.000266007 -4.96713e-05)
(0.132496 -0.000196432 1.03614e-05)
(0.132534 -0.000114418 5.18237e-05)
(0.132545 -4.54696e-05 6.58814e-05)
(0.13256 -1.05999e-05 9.8304e-05)
(0.13255 -7.96608e-06 0.000135411)
(0.132545 -2.01062e-05 0.000175781)
(0.132572 -3.97234e-05 0.000203181)
(0.132569 -5.15093e-05 0.000248704)
(0.132544 -5.91109e-05 0.000321642)
(0.132443 -4.19762e-05 0.000414649)
(0.132345 -6.33353e-06 0.000473088)
(0.132235 5.046e-05 0.000503305)
(0.132157 0.000105599 0.000487491)
(0.132042 0.00016828 0.000450507)
(0.131929 0.000213164 0.000394291)
(0.13181 0.000260729 0.00035134)
(0.13171 0.000313692 0.000324945)
(0.131612 0.00038409 0.000322938)
(0.131484 0.000439781 0.000326169)
(0.131362 0.000469902 0.000312897)
(0.131334 0.00047446 0.00026089)
(0.13141 0.000470947 0.000188339)
(0.131563 0.000464006 9.69303e-05)
(0.131713 0.000455611 1.49721e-05)
(0.131861 0.000417311 -6.58015e-05)
(0.13392 0.000277303 0.000835216)
(0.134042 0.000260675 0.000776994)
(0.134158 0.000263101 0.000706189)
(0.134247 0.000263446 0.000637659)
(0.134283 0.000264999 0.000596293)
(0.134299 0.00024348 0.000570554)
(0.134321 0.000198771 0.000546543)
(0.134334 0.000131705 0.000504516)
(0.134339 6.72551e-05 0.000473492)
(0.134307 2.52584e-05 0.000460002)
(0.134278 1.79521e-05 0.000444122)
(0.134231 1.84307e-05 0.000399435)
(0.134205 2.0938e-05 0.000347909)
(0.134131 3.20781e-05 0.000321264)
(0.134093 7.87414e-05 0.000336038)
(0.134044 0.000154286 0.000366358)
(0.134044 0.000242701 0.000385276)
(0.134044 0.000324276 0.000370147)
(0.134085 0.0003834 0.000364435)
(0.134111 0.000405614 0.000386591)
(0.134157 0.000390097 0.000445821)
(0.134241 0.00035737 0.000515788)
(0.134324 0.000328222 0.000584687)
(0.134397 0.000304177 0.000659697)
(0.134355 0.000290077 0.000750812)
(0.134323 0.000288762 0.000824507)
(0.134256 0.000295972 0.000875078)
(0.134257 0.000304361 0.000886418)
(0.134217 0.000316238 0.000880705)
(0.134196 0.000320325 0.00085248)
(0.134133 0.000322737 0.000825846)
(0.134101 0.000334497 0.000805268)
(0.13406 0.000369978 0.000823884)
(0.134011 0.000405855 0.000876533)
(0.133891 0.000421317 0.000938987)
(0.133787 0.00039675 0.000966695)
(0.133711 0.000359452 0.000968932)
(0.133733 0.00033085 0.00094149)
(0.133764 0.000322301 0.000910394)
(0.133848 0.000300584 0.000869262)
(0.135511 0.000154825 0.00159466)
(0.135549 0.000152864 0.00159134)
(0.135586 0.000169528 0.00156702)
(0.135632 0.000188102 0.00152189)
(0.135666 0.00021013 0.00149112)
(0.135708 0.000224067 0.00145893)
(0.135748 0.000231838 0.00143063)
(0.135782 0.000218725 0.00138332)
(0.135785 0.000192045 0.00133791)
(0.135752 0.000167171 0.00129113)
(0.135687 0.000169341 0.00124172)
(0.135602 0.00018781 0.0011631)
(0.135535 0.000215163 0.00107545)
(0.135446 0.000242641 0.000984376)
(0.135393 0.000285588 0.000905383)
(0.135338 0.000344076 0.000829558)
(0.135335 0.000413466 0.000767999)
(0.135349 0.000474421 0.000695025)
(0.135417 0.000525638 0.000630773)
(0.135479 0.000542775 0.000577766)
(0.135557 0.000520123 0.00056818)
(0.13565 0.000469999 0.000589341)
(0.13576 0.000431352 0.000633123)
(0.135876 0.000408858 0.000677426)
(0.135891 0.000404829 0.000745623)
(0.13591 0.000403702 0.000822093)
(0.135871 0.000401509 0.000901252)
(0.135888 0.000392017 0.000948679)
(0.135859 0.000391811 0.000977787)
(0.135863 0.000386835 0.000984485)
(0.135812 0.000375725 0.000990385)
(0.135795 0.000357734 0.00099263)
(0.135767 0.000356883 0.00103952)
(0.135777 0.000365972 0.00113734)
(0.135725 0.000371534 0.00127203)
(0.135655 0.000343507 0.00137955)
(0.135539 0.000294632 0.00146181)
(0.135492 0.000239711 0.00150444)
(0.135462 0.000201916 0.00154465)
(0.135501 0.000170255 0.00156636)
(0.137476 0.000396891 0.000812337)
(0.137492 0.00042428 0.00080933)
(0.1375 0.000455994 0.000802341)
(0.137524 0.000477156 0.000777755)
(0.137536 0.000494431 0.000764999)
(0.137565 0.000516275 0.000764155)
(0.137595 0.000543657 0.000801086)
(0.137649 0.000551066 0.000857522)
(0.137678 0.000531223 0.000927696)
(0.137705 0.000501802 0.000990787)
(0.137678 0.000483655 0.00104192)
(0.137625 0.000487654 0.00106051)
(0.13755 0.000506429 0.0010599)
(0.13749 0.000533207 0.00104386)
(0.137451 0.000558648 0.00102216)
(0.137438 0.00057895 0.000978393)
(0.13743 0.000592123 0.000927809)
(0.137441 0.000604031 0.000863798)
(0.137467 0.000615321 0.000803155)
(0.137517 0.000622822 0.000731199)
(0.137561 0.00060562 0.000676132)
(0.137628 0.000571503 0.000633229)
(0.137679 0.00055183 0.000623414)
(0.137771 0.000562727 0.000622309)
(0.137806 0.000600977 0.000651921)
(0.137844 0.000637381 0.000677443)
(0.137825 0.000662097 0.000701025)
(0.137829 0.000659043 0.000690909)
(0.137796 0.00065091 0.000663526)
(0.137792 0.000634417 0.000615286)
(0.13775 0.000612729 0.000568947)
(0.13774 0.000574273 0.000513313)
(0.137697 0.000539716 0.000492433)
(0.137704 0.000522545 0.000516969)
(0.137674 0.000523715 0.000594457)
(0.137662 0.000515277 0.00066746)
(0.137585 0.000488108 0.00073074)
(0.137542 0.000442872 0.000758668)
(0.137483 0.000403607 0.000790289)
(0.137492 0.000383411 0.000798343)
(0.139145 0.000589636 -0.000214202)
(0.139186 0.000629445 -0.000252617)
(0.139236 0.000668587 -0.000291643)
(0.139276 0.000702453 -0.000336728)
(0.139296 0.000725332 -0.000376771)
(0.139301 0.000754237 -0.000387859)
(0.139318 0.000783197 -0.000354028)
(0.139366 0.000803063 -0.000274829)
(0.139413 0.00080633 -0.000172021)
(0.139465 0.00080523 -6.32315e-05)
(0.139478 0.00080543 3.40371e-05)
(0.139458 0.000809759 0.00010557)
(0.139411 0.000811175 0.000144281)
(0.139399 0.000816151 0.000163407)
(0.139428 0.000815646 0.000176158)
(0.139504 0.000802168 0.000181505)
(0.139573 0.000771951 0.000178149)
(0.13963 0.000737777 0.000167286)
(0.139665 0.000709642 0.00015512)
(0.139699 0.00068947 0.000140757)
(0.139716 0.000653344 0.000124945)
(0.13974 0.000599974 0.000111665)
(0.139743 0.000554957 0.000107362)
(0.139775 0.000544227 0.000114747)
(0.139759 0.000568606 0.000140701)
(0.139738 0.000608007 0.000171112)
(0.13966 0.000639656 0.000187698)
(0.139591 0.000646751 0.00018209)
(0.139484 0.000640209 0.000156529)
(0.139409 0.000642925 0.000124262)
(0.139323 0.000653778 8.15155e-05)
(0.139273 0.000654629 1.71444e-05)
(0.139197 0.000638503 -4.77387e-05)
(0.139153 0.00061828 -8.81121e-05)
(0.139098 0.000613352 -9.45792e-05)
(0.139098 0.0006144 -8.75682e-05)
(0.139085 0.00060868 -9.02666e-05)
(0.139103 0.00059402 -0.000116015)
(0.139101 0.000575376 -0.000145825)
(0.13913 0.00057092 -0.000178911)
(0.14051 0.000848304 -0.000681194)
(0.14054 0.000872382 -0.000723471)
(0.140582 0.000888792 -0.000779324)
(0.140624 0.000898784 -0.000839937)
(0.140673 0.000899013 -0.000897743)
(0.140712 0.000898638 -0.000937544)
(0.140743 0.000899501 -0.000952808)
(0.140761 0.000901221 -0.000942095)
(0.14076 0.000898268 -0.000912146)
(0.140752 0.000906422 -0.000867064)
(0.140732 0.000928253 -0.000811281)
(0.140719 0.000965673 -0.000759255)
(0.140695 0.000998569 -0.0007398)
(0.140692 0.00102334 -0.000759621)
(0.140712 0.00102827 -0.00079769)
(0.140771 0.0010187 -0.00082741)
(0.140831 0.000991415 -0.000835175)
(0.140892 0.000963823 -0.000821997)
(0.140939 0.000946448 -0.000805397)
(0.141 0.000941136 -0.000803403)
(0.141062 0.000918154 -0.000819754)
(0.141142 0.000869793 -0.000832643)
(0.141215 0.000808905 -0.000827905)
(0.141303 0.000783241 -0.000814184)
(0.141344 0.000799832 -0.000792446)
(0.141354 0.000834957 -0.000762942)
(0.141297 0.000856351 -0.000734728)
(0.141227 0.000849097 -0.000712006)
(0.141119 0.000826415 -0.000701919)
(0.141019 0.000822128 -0.000698098)
(0.140915 0.000839834 -0.000696916)
(0.140838 0.000862736 -0.000701877)
(0.140746 0.000873577 -0.000712482)
(0.140667 0.000870056 -0.000718317)
(0.140575 0.000862176 -0.000709744)
(0.140521 0.000856769 -0.000680086)
(0.140474 0.000847494 -0.000648739)
(0.140461 0.000837984 -0.000635841)
(0.140458 0.000827784 -0.000639841)
(0.140484 0.000831261 -0.000653555)
(0.142171 0.000997396 -0.000724932)
(0.142203 0.000984048 -0.000747126)
(0.142248 0.000972426 -0.000778393)
(0.142284 0.000952291 -0.000833015)
(0.142321 0.000922885 -0.00089224)
(0.14236 0.000890887 -0.000943204)
(0.142408 0.000866347 -0.000965964)
(0.142456 0.000847238 -0.000965278)
(0.142485 0.000824829 -0.000938981)
(0.142484 0.000809081 -0.000904318)
(0.14245 0.00080403 -0.00085304)
(0.142424 0.000808716 -0.000792461)
(0.142404 0.000806992 -0.000731214)
(0.142424 0.000798332 -0.00070422)
(0.142462 0.000786327 -0.000707956)
(0.142519 0.000787844 -0.000738335)
(0.142536 0.000809001 -0.000759609)
(0.142526 0.000845371 -0.000766122)
(0.142485 0.000887636 -0.0007574)
(0.142464 0.000922557 -0.00076707)
(0.142468 0.000938548 -0.000791687)
(0.142515 0.000934756 -0.000831718)
(0.142573 0.000920638 -0.000854167)
(0.142644 0.00092932 -0.000872414)
(0.142692 0.000977533 -0.000873641)
(0.142727 0.00104867 -0.000866971)
(0.142727 0.00110885 -0.000852071)
(0.142719 0.00113826 -0.000854233)
(0.142681 0.00114322 -0.000871035)
(0.142634 0.00115265 -0.000903301)
(0.142568 0.00117465 -0.000917658)
(0.142522 0.00119934 -0.000919148)
(0.142468 0.00121393 -0.000902403)
(0.142427 0.00121147 -0.000887457)
(0.142365 0.00119666 -0.000864749)
(0.14231 0.0011748 -0.000837236)
(0.142241 0.00114459 -0.000788435)
(0.142191 0.00110897 -0.000751466)
(0.142152 0.00106621 -0.000723503)
(0.142152 0.00102613 -0.000721785)
(0.144804 0.00126965 -0.00128997)
(0.144801 0.00128147 -0.0013133)
(0.144789 0.0012938 -0.00133785)
(0.144776 0.00129759 -0.00138251)
(0.144756 0.00128034 -0.00144004)
(0.14474 0.00125281 -0.00150368)
(0.144718 0.00121951 -0.00154943)
(0.144707 0.00119502 -0.00156962)
(0.144696 0.00117726 -0.0015552)
(0.1447 0.00117245 -0.00152139)
(0.144677 0.00117677 -0.00147525)
(0.144655 0.00118072 -0.00142258)
(0.144605 0.00116701 -0.00135825)
(0.144578 0.00113541 -0.00129222)
(0.144546 0.00109247 -0.00122479)