/*--------------------------------*- C++ -*----------------------------------*\
| =========                 |                                                 |
| \\      /  F ield         | OpenFOAM: The Open Source CFD Toolbox           |
|  \\    /   O peration     | Version:  2.3.0                                 |
|   \\  /    A nd           | Web:      www.OpenFOAM.org                      |
|    \\/     M anipulation  |                                                 |
\*---------------------------------------------------------------------------*/
FoamFile
{
    version     2.0;
    format      ascii;
    class       volVectorField;
    location    "200";
    object      UMean;
}
// * * * * * * * * * * * * * * * * * * * * * * * * * * * * * * * * * * * * * //

dimensions      [0 1 -1 0 0 0 0];

internalField   nonuniform List<vector> 
90000
(
(0.0098912 -8.02655e-07 -7.48238e-05)
(0.00989421 -3.65679e-07 -6.00789e-05)
(0.00988964 -9.09324e-08 -5.92334e-05)
(0.00990202 -2.0415e-07 -7.199e-05)
(0.00990671 -2.3402e-07 -7.45638e-05)
(0.00990353 3.40728e-07 -7.26668e-05)
(0.00990063 -2.82201e-08 -6.32681e-05)
(0.00989978 -4.33685e-07 -6.61209e-05)
(0.00989214 2.49081e-07 -7.58794e-05)
(0.00987874 1.09516e-06 -8.53698e-05)
(0.00986929 9.11823e-07 -8.99303e-05)
(0.00985429 1.75635e-06 -9.30552e-05)
(0.00984712 1.59273e-06 -0.000100271)
(0.00984761 1.07443e-06 -0.000105058)
(0.0098441 1.74413e-06 -0.00010163)
(0.00985746 4.45678e-08 -8.66274e-05)
(0.00984672 -1.9603e-07 -7.08465e-05)
(0.00985877 -3.68562e-07 -6.90491e-05)
(0.00985834 -5.1342e-07 -5.82933e-05)
(0.00986728 -5.07159e-07 -5.21282e-05)
(0.00987736 -3.73011e-09 -3.83733e-05)
(0.00988315 -2.55625e-07 -3.09834e-05)
(0.00987638 -6.54507e-07 -3.66403e-05)
(0.00988799 -1.05393e-06 -4.22399e-05)
(0.00989461 -1.35888e-06 -4.1522e-05)
(0.00990842 -1.82883e-07 -4.87498e-05)
(0.00990782 -1.19141e-07 -6.38388e-05)
(0.00989373 4.3663e-07 -8.15001e-05)
(0.00988615 1.06327e-06 -0.000103659)
(0.00989007 3.21794e-07 -0.000108397)
(0.00985482 9.99099e-07 -0.000123303)
(0.00987271 1.65543e-06 -0.000126507)
(0.00989339 3.76766e-07 -0.000123968)
(0.0099054 -2.0737e-07 -0.00010855)
(0.00991799 6.29811e-08 -8.9188e-05)
(0.00992049 6.30721e-08 -6.27577e-05)
(0.00991436 4.2973e-08 -5.31831e-05)
(0.0098919 -9.27571e-07 -4.47034e-05)
(0.00988791 -1.84402e-06 -5.62624e-05)
(0.00988103 -2.41955e-07 -5.90315e-05)
(0.00984376 -2.58502e-06 -5.56905e-05)
(0.0099537 -2.93282e-06 -4.58179e-05)
(0.009974 -9.93215e-07 -6.21068e-05)
(0.00999492 -5.61706e-08 -8.81026e-05)
(0.00999828 1.06326e-08 -0.000113387)
(0.0100139 1.24346e-07 -0.000119435)
(0.0100039 2.0436e-07 -0.000120744)
(0.0100002 6.43293e-07 -0.000114986)
(0.00995652 1.36336e-06 -0.000109764)
(0.00996538 6.8402e-07 -9.17942e-05)
(0.0298152 -7.0564e-06 -0.000185416)
(0.0297642 -1.2237e-05 -0.000158018)
(0.0297364 -1.41742e-05 -0.000142255)
(0.0297563 -1.51776e-05 -0.000141824)
(0.0297751 -1.59169e-05 -0.000140038)
(0.0297743 -1.50374e-05 -0.000139603)
(0.0297852 -1.56491e-05 -0.000123919)
(0.0297849 -1.54801e-05 -0.00013147)
(0.0297681 -1.43431e-05 -0.00015142)
(0.0297563 -1.18067e-05 -0.000178996)
(0.0297351 -1.19335e-05 -0.000197614)
(0.0297043 -1.17105e-05 -0.000207587)
(0.0296973 -1.24781e-05 -0.000230426)
(0.0296986 -1.27936e-05 -0.000247115)
(0.0296992 -1.27319e-05 -0.000251498)
(0.029745 -1.35988e-05 -0.000231013)
(0.0297036 -1.34016e-05 -0.000200782)
(0.0297281 -1.47367e-05 -0.000181511)
(0.0297214 -1.38798e-05 -0.000144917)
(0.0297374 -1.4642e-05 -0.000133132)
(0.0297488 -1.38964e-05 -0.000107916)
(0.0297873 -1.2104e-05 -7.7966e-05)
(0.029772 -1.29699e-05 -7.7589e-05)
(0.0298067 -1.59989e-05 -7.43833e-05)
(0.0298105 -1.50846e-05 -6.79944e-05)
(0.0298532 -1.56614e-05 -8.10972e-05)
(0.0298747 -1.21787e-05 -0.000113927)
(0.0298574 -9.47257e-06 -0.000138249)
(0.0298555 -1.11291e-05 -0.000184601)
(0.0298666 -1.09157e-05 -0.000194359)
(0.0297524 -1.33946e-05 -0.000229118)
(0.0298359 -1.83418e-05 -0.00024453)
(0.0299016 -1.74913e-05 -0.000242562)
(0.0299111 -1.64409e-05 -0.000220753)
(0.0299348 -1.40386e-05 -0.000198006)
(0.0299389 -1.24982e-05 -0.000153716)
(0.0299385 -1.02172e-05 -0.000135907)
(0.0298735 -9.94566e-06 -0.00011323)
(0.0298366 -1.24059e-05 -0.000126239)
(0.0297909 -1.05073e-05 -0.000119863)
(0.0297431 -1.83533e-05 -0.000133006)
(0.0297757 -2.08345e-05 -0.000117283)
(0.0297613 -1.46136e-05 -0.000137369)
(0.0298093 -1.2029e-05 -0.000178475)
(0.0298179 -1.12109e-05 -0.000234213)
(0.0298964 -1.0968e-05 -0.000244099)
(0.029909 -1.04675e-05 -0.000257187)
(0.0299595 -6.18437e-06 -0.000243253)
(0.0299123 -9.45332e-06 -0.000241428)
(0.0299795 -2.98172e-06 -0.000208697)
(0.0500654 -3.8161e-05 -0.000252791)
(0.0500052 -4.65848e-05 -0.000241456)
(0.0499828 -5.26567e-05 -0.000229576)
(0.0500002 -5.59533e-05 -0.000213102)
(0.0500218 -5.57318e-05 -0.000208725)
(0.0500125 -5.39978e-05 -0.000200823)
(0.0500029 -5.53893e-05 -0.000179626)
(0.0500001 -5.41269e-05 -0.000180951)
(0.0499237 -5.10292e-05 -0.000206252)
(0.0499064 -4.62693e-05 -0.000241244)
(0.0498379 -4.42252e-05 -0.000265173)
(0.0498154 -4.15406e-05 -0.0002954)
(0.0498085 -4.14499e-05 -0.000318592)
(0.0497969 -3.57486e-05 -0.000330365)
(0.0498369 -4.5682e-05 -0.000352132)
(0.0499166 -4.38438e-05 -0.000330215)
(0.0498965 -4.06991e-05 -0.000310276)
(0.0499461 -4.34902e-05 -0.000272044)
(0.0499295 -4.32416e-05 -0.000236575)
(0.0499815 -4.40574e-05 -0.000192317)
(0.0499653 -4.67126e-05 -0.000152186)
(0.0500563 -5.25838e-05 -0.000107725)
(0.0500534 -5.58471e-05 -9.43603e-05)
(0.050081 -5.95449e-05 -6.58584e-05)
(0.0500728 -5.62651e-05 -4.27952e-05)
(0.0500819 -5.98504e-05 -4.91689e-05)
(0.0500889 -5.4493e-05 -8.12598e-05)
(0.0500781 -4.73702e-05 -0.000120507)
(0.0500622 -4.6797e-05 -0.000158421)
(0.0500088 -3.90596e-05 -0.000172085)
(0.0498967 -4.24258e-05 -0.000215205)
(0.0498285 -5.4941e-05 -0.000228464)
(0.0498313 -5.24081e-05 -0.000225876)
(0.0497851 -5.00015e-05 -0.000212542)
(0.0498093 -4.82866e-05 -0.000215946)
(0.0498189 -4.59369e-05 -0.00018578)
(0.0498511 -4.17308e-05 -0.000183093)
(0.0498254 -4.12234e-05 -0.000158402)
(0.0498307 -3.93074e-05 -0.000175916)
(0.049831 -4.45552e-05 -0.00015221)
(0.0498667 -5.1442e-05 -0.000192732)
(0.0498909 -5.41155e-05 -0.000175782)
(0.0498987 -5.40115e-05 -0.000231104)
(0.0499958 -5.2425e-05 -0.000264369)
(0.0500164 -5.70278e-05 -0.000326736)
(0.0501303 -5.81117e-05 -0.000300109)
(0.0501397 -5.91517e-05 -0.000316098)
(0.050217 -4.81497e-05 -0.000285054)
(0.050152 -4.76465e-05 -0.000303084)
(0.0501799 -3.14744e-05 -0.000259316)
(0.0694583 -9.2213e-05 -0.000360916)
(0.0693711 -0.000105584 -0.000354795)
(0.0693147 -0.000117408 -0.000373534)
(0.0693054 -0.000121041 -0.000338653)
(0.069304 -0.000120134 -0.000339194)
(0.0693099 -0.000111392 -0.000296737)
(0.0692966 -0.000113333 -0.000270963)
(0.0693382 -0.00010749 -0.00024241)
(0.069277 -0.000105902 -0.000264628)
(0.069338 -0.00010083 -0.000284303)
(0.0692593 -0.000103016 -0.000332278)
(0.0693097 -0.00011155 -0.000343422)
(0.0693489 -0.000114544 -0.000391562)
(0.0693543 -0.000108572 -0.000396963)
(0.0693537 -0.000117703 -0.000444707)
(0.0693787 -0.00011149 -0.000397545)
(0.0692955 -0.000101287 -0.00039378)
(0.0692684 -9.63514e-05 -0.000331319)
(0.0691851 -9.30198e-05 -0.00032912)
(0.0691431 -9.11307e-05 -0.000231534)
(0.0691115 -9.11473e-05 -0.000185863)
(0.0690121 -9.43908e-05 -0.000105594)
(0.0689056 -9.84076e-05 -8.84818e-05)
(0.0688408 -0.000107886 -3.28008e-05)
(0.0688172 -0.000101695 -1.93248e-05)
(0.0687929 -0.000111943 -7.41668e-06)
(0.0688215 -0.000108353 -5.56609e-05)
(0.0688631 -0.000104415 -7.09902e-05)
(0.0688966 -0.000101478 -9.03908e-05)
(0.0689183 -9.82927e-05 -8.66544e-05)
(0.068895 -9.95648e-05 -0.000136464)
(0.0689062 -0.00011677 -0.000140044)
(0.0689861 -0.000115229 -0.000143932)
(0.0689819 -0.000111856 -0.00013003)
(0.0690659 -0.000109699 -0.000157755)
(0.0690947 -0.000107773 -0.000175283)
(0.0691378 -0.000101717 -0.000204234)
(0.0691454 -0.000101293 -0.000180871)
(0.0691526 -9.52614e-05 -0.000207869)
(0.0691396 -9.92365e-05 -0.000201768)
(0.0691603 -0.000103178 -0.000270019)
(0.0691419 -0.000101641 -0.000291962)
(0.0691066 -0.000110208 -0.000370289)
(0.0691902 -0.000110093 -0.000391824)
(0.069201 -0.000116373 -0.000445757)
(0.0693331 -0.000117791 -0.000405608)
(0.069338 -0.000119661 -0.000414997)
(0.0694997 -0.000107628 -0.000364217)
(0.0694639 -0.000110304 -0.000379333)
(0.0696535 -8.66474e-05 -0.000338737)
(0.0866827 -0.000168379 -0.000543648)
(0.0866298 -0.000186181 -0.000535371)
(0.0866788 -0.000205329 -0.000553063)
(0.0866445 -0.000213662 -0.000500582)
(0.0866481 -0.000218454 -0.00051284)
(0.0866178 -0.000208082 -0.000436058)
(0.0865856 -0.00020918 -0.00042149)
(0.0865395 -0.000198239 -0.000348369)
(0.0865019 -0.000188007 -0.000364906)
(0.0864539 -0.000173803 -0.000353272)
(0.0863882 -0.000164892 -0.000412723)
(0.0862636 -0.000160283 -0.000398206)
(0.0861346 -0.000157577 -0.00044355)
(0.086024 -0.000146629 -0.000443393)
(0.085884 -0.000156053 -0.000491006)
(0.0857882 -0.000151693 -0.000436927)
(0.0856834 -0.000140398 -0.000431294)
(0.0856254 -0.000137223 -0.00034443)
(0.0855464 -0.000135748 -0.000375725)
(0.0855141 -0.000144552 -0.000246903)
(0.0854891 -0.000148951 -0.000236302)
(0.085472 -0.00015367 -9.98647e-05)
(0.0854716 -0.000163272 -0.000100445)
(0.0854895 -0.00018191 -2.61015e-05)
(0.0855539 -0.000179259 -3.80164e-05)
(0.0856084 -0.00019135 1.15379e-05)
(0.085706 -0.000191367 -7.50485e-05)
(0.0857656 -0.000189272 -3.94426e-05)
(0.0858116 -0.000187612 -8.97086e-05)
(0.085854 -0.000177424 -4.2696e-05)
(0.0857908 -0.000172207 -0.000105043)
(0.0858054 -0.000189414 -9.73544e-05)
(0.0858083 -0.000192283 -0.000144905)
(0.0858416 -0.000189818 -7.81196e-05)
(0.0858787 -0.000184762 -0.000128768)
(0.0859059 -0.000179731 -0.000146834)
(0.0859334 -0.000172607 -0.000216918)
(0.0859953 -0.000170136 -0.000203296)
(0.0860722 -0.000163446 -0.000249121)
(0.0861803 -0.000168525 -0.000266856)
(0.0863051 -0.000177695 -0.000361924)
(0.0863825 -0.000181024 -0.000410372)
(0.0864792 -0.000199252 -0.000512116)
(0.0865671 -0.000205413 -0.000544427)
(0.086627 -0.000224755 -0.000634218)
(0.0866774 -0.000225193 -0.000615298)
(0.086713 -0.000235606 -0.000651621)
(0.0867517 -0.000215 -0.000588972)
(0.0867227 -0.00021814 -0.000598083)
(0.0867668 -0.000186493 -0.000538982)
(0.0999393 -0.000262115 -0.000625583)
(0.0998873 -0.000273712 -0.000578517)
(0.0999682 -0.000287794 -0.000601066)
(0.0998299 -0.000284508 -0.000547867)
(0.0998717 -0.000287749 -0.000544443)
(0.0996937 -0.000271614 -0.000510476)
(0.0997334 -0.000272665 -0.000500691)
(0.0995979 -0.000260127 -0.000422557)
(0.0996528 -0.00025437 -0.000445431)
(0.0995572 -0.000239701 -0.000405822)
(0.0995887 -0.00024151 -0.000463937)
(0.0994749 -0.000233261 -0.000433328)
(0.0995191 -0.000246269 -0.000490663)
(0.0994604 -0.000231479 -0.000462193)
(0.09948 -0.00024504 -0.000507821)
(0.0994605 -0.00023908 -0.000465621)
(0.0994987 -0.000232899 -0.000472145)
(0.0995232 -0.000223538 -0.000380595)
(0.0995155 -0.000222024 -0.000405408)
(0.0994476 -0.000220485 -0.000311427)
(0.0994295 -0.000222937 -0.000303642)
(0.0993547 -0.000223818 -0.000173852)
(0.0993376 -0.000234717 -0.000185938)
(0.0992227 -0.000254636 -0.000130488)
(0.0992017 -0.000258427 -0.000157128)
(0.0991479 -0.000273561 -0.000115725)
(0.0991799 -0.000270115 -0.000190226)
(0.099188 -0.000264225 -0.000189747)
(0.0992158 -0.000275411 -0.000234742)
(0.0993427 -0.000269379 -0.000200589)
(0.0994073 -0.000266248 -0.000247949)
(0.0995122 -0.000286959 -0.000244699)
(0.0996601 -0.000292254 -0.000306819)
(0.0997617 -0.000287465 -0.000229485)
(0.099884 -0.000284014 -0.000241609)
(0.0999222 -0.000278145 -0.000220525)
(0.099977 -0.000272485 -0.000296892)
(0.0999764 -0.000269993 -0.000290081)
(0.100064 -0.000263309 -0.00032705)
(0.100075 -0.000257848 -0.000339686)
(0.100179 -0.00026121 -0.000422979)
(0.100148 -0.000258816 -0.000461532)
(0.100194 -0.00027053 -0.000558719)
(0.100111 -0.000268725 -0.000602855)
(0.100119 -0.000276261 -0.000735802)
(0.0999703 -0.000283087 -0.000753475)
(0.100023 -0.000289568 -0.000814978)
(0.0998362 -0.000281352 -0.000745757)
(0.0999735 -0.000282332 -0.000752013)
(0.0997328 -0.000267229 -0.000644152)
(0.110215 -0.000319134 -0.000586543)
(0.110002 -0.000322549 -0.000500412)
(0.110065 -0.000342885 -0.000530296)
(0.109887 -0.000340314 -0.000482882)
(0.110053 -0.000351917 -0.000470138)
(0.109961 -0.000334478 -0.000426483)
(0.110189 -0.000338913 -0.000403276)
(0.110125 -0.000320962 -0.000334994)
(0.110299 -0.000315063 -0.000326499)
(0.11018 -0.000290102 -0.000301777)
(0.110307 -0.000281482 -0.000331795)
(0.110131 -0.000257613 -0.000308575)
(0.110237 -0.00027148 -0.000355868)
(0.110048 -0.000252003 -0.000345011)
(0.110089 -0.000269419 -0.000396291)
(0.109868 -0.000267111 -0.000371729)
(0.109914 -0.000273529 -0.000388311)
(0.109757 -0.00026188 -0.000337451)
(0.109822 -0.000271558 -0.000352353)
(0.109712 -0.000280543 -0.00027788)
(0.10979 -0.000295306 -0.000309224)
(0.109708 -0.000300738 -0.000210025)
(0.109837 -0.000307078 -0.000263482)
(0.109748 -0.000317949 -0.000208938)
(0.109865 -0.000328749 -0.000273981)
(0.109738 -0.000344376 -0.000232878)
(0.109832 -0.000355752 -0.00032362)
(0.109755 -0.000347766 -0.000345388)
(0.10985 -0.000366163 -0.000428335)
(0.109776 -0.000351972 -0.000384387)
(0.109878 -0.000345533 -0.000428001)
(0.109831 -0.000345727 -0.000416293)
(0.109983 -0.000350252 -0.000456175)
(0.109955 -0.00033284 -0.000368754)
(0.11002 -0.000316756 -0.000357612)
(0.109917 -0.000291706 -0.000300577)
(0.109944 -0.000290592 -0.00032238)
(0.109847 -0.000287842 -0.000282645)
(0.109881 -0.00028691 -0.000338934)
(0.109863 -0.000288701 -0.000325707)
(0.109924 -0.000305614 -0.000406445)
(0.109883 -0.000313422 -0.000415286)
(0.109883 -0.000335426 -0.000510712)
(0.109849 -0.000336061 -0.000544866)
(0.109898 -0.000356561 -0.000709434)
(0.109918 -0.000362474 -0.000698639)
(0.110018 -0.000377051 -0.000800728)
(0.110135 -0.000353803 -0.00070534)
(0.110235 -0.000357212 -0.000745233)
(0.110214 -0.000309149 -0.000597971)
(0.117862 -0.000285049 -0.00041735)
(0.117693 -0.000271807 -0.000352203)
(0.117913 -0.000279377 -0.000372484)
(0.117766 -0.00028282 -0.000319646)
(0.117976 -0.000290988 -0.00031454)
(0.117802 -0.000285014 -0.000264069)
(0.117977 -0.000298213 -0.000253017)
(0.117766 -0.000285438 -0.000185531)
(0.117941 -0.000283913 -0.000203407)
(0.11775 -0.000275746 -0.000168675)
(0.11796 -0.000286179 -0.000231421)
(0.117869 -0.000277866 -0.000248826)
(0.118069 -0.000300843 -0.000320973)
(0.117954 -0.000270945 -0.000318364)
(0.118096 -0.00029033 -0.000374943)
(0.117899 -0.000298241 -0.000352277)
(0.118024 -0.000313721 -0.000389348)
(0.11784 -0.000305831 -0.000349167)
(0.117974 -0.000310366 -0.000369472)
(0.117763 -0.000308741 -0.000336454)
(0.117817 -0.000323513 -0.000342532)
(0.117592 -0.00031967 -0.00026479)
(0.117733 -0.000332557 -0.000317674)
(0.11757 -0.000339504 -0.000264333)
(0.117714 -0.000343715 -0.000335576)
(0.1175 -0.000337661 -0.000312878)
(0.117549 -0.000348501 -0.000419678)
(0.117288 -0.000349815 -0.000402042)
(0.117375 -0.00037964 -0.000512693)
(0.117177 -0.000367346 -0.000442624)
(0.11731 -0.000371853 -0.000509136)
(0.117178 -0.000375451 -0.000481313)
(0.11728 -0.00039087 -0.00051471)
(0.117147 -0.000373622 -0.00041788)
(0.117221 -0.000363459 -0.000409758)
(0.117169 -0.000337581 -0.000312357)
(0.117334 -0.000337189 -0.000343629)
(0.117358 -0.00031759 -0.000257615)
(0.117535 -0.000301712 -0.000316514)
(0.117485 -0.000285083 -0.000267133)
(0.117556 -0.000290535 -0.000350307)
(0.117492 -0.000279354 -0.000313303)
(0.117596 -0.000287349 -0.000429775)
(0.117572 -0.000280306 -0.000420823)
(0.117694 -0.000300758 -0.000576885)
(0.11768 -0.000318041 -0.00056587)
(0.117733 -0.00033965 -0.00065112)
(0.117676 -0.000342435 -0.00055435)
(0.117745 -0.000325028 -0.000587193)
(0.117725 -0.00030822 -0.000428717)
(0.123887 -0.000246343 -0.000289256)
(0.123734 -0.000259567 -0.000246323)
(0.123988 -0.000282975 -0.000266449)
(0.123914 -0.000278355 -0.0002241)
(0.124126 -0.000276774 -0.000247682)
(0.124006 -0.000264062 -0.00021696)
(0.124149 -0.000270814 -0.000228988)
(0.123979 -0.000248148 -0.000185124)
(0.124155 -0.00024314 -0.000201534)
(0.124013 -0.000217849 -0.00019524)
(0.124176 -0.000226279 -0.000249159)
(0.124 -0.000215919 -0.000264814)
(0.12413 -0.000237233 -0.000325813)
(0.124001 -0.000217701 -0.000338187)
(0.124213 -0.000226207 -0.00039481)
(0.123977 -0.000221038 -0.000374488)
(0.124104 -0.000229699 -0.000401483)
(0.123805 -0.000230744 -0.000376911)
(0.123839 -0.000251136 -0.00039487)
(0.123593 -0.00025758 -0.000336789)
(0.123635 -0.000276304 -0.000339089)
(0.123439 -0.00028723 -0.000241698)
(0.123567 -0.000315921 -0.000272423)
(0.123322 -0.000325612 -0.000217707)
(0.123436 -0.000334697 -0.000297312)
(0.123254 -0.000333359 -0.000278736)
(0.123409 -0.000338599 -0.000381213)
(0.123359 -0.000324504 -0.000400659)
(0.123504 -0.000330026 -0.00047778)
(0.123421 -0.000306552 -0.000471137)
(0.123534 -0.000305926 -0.000541485)
(0.123362 -0.00029445 -0.000524089)
(0.123471 -0.000298232 -0.000581773)
(0.12335 -0.000273268 -0.000496975)
(0.123508 -0.000263638 -0.000518174)
(0.123409 -0.000245556 -0.000451774)
(0.123578 -0.000256544 -0.000465274)
(0.123482 -0.000244819 -0.000391003)
(0.123667 -0.000244331 -0.000450547)
(0.123564 -0.000222238 -0.000399813)
(0.123688 -0.00024028 -0.000469639)
(0.123614 -0.000237415 -0.000404741)
(0.123802 -0.000265523 -0.000493354)
(0.123755 -0.000251648 -0.000490698)
(0.123913 -0.000281647 -0.000629699)
(0.123802 -0.000287588 -0.000603754)
(0.123875 -0.000319767 -0.000635388)
(0.123712 -0.0003024 -0.000513675)
(0.123779 -0.000305395 -0.000491841)
(0.123693 -0.000251828 -0.000350434)
(0.128393 -0.000217697 -0.000402698)
(0.12827 -0.000209037 -0.000311992)
(0.128448 -0.000239643 -0.000368743)
(0.128391 -0.000242159 -0.000285696)
(0.128613 -0.00024656 -0.000347361)
(0.128587 -0.000224795 -0.000270145)
(0.128758 -0.000216041 -0.000331687)
(0.128615 -0.000202719 -0.000272422)
(0.128721 -0.000213086 -0.00033564)
(0.128576 -0.000216561 -0.000289619)
(0.128655 -0.00022559 -0.000371697)
(0.128555 -0.00021905 -0.000348967)
(0.128622 -0.00023889 -0.00043599)
(0.128499 -0.000243374 -0.000417924)
(0.128568 -0.000255633 -0.000491974)
(0.128373 -0.000251825 -0.000429373)
(0.128499 -0.000256165 -0.00048244)
(0.128371 -0.000235224 -0.000407562)
(0.128487 -0.000233441 -0.000437779)
(0.128384 -0.000215091 -0.000332529)
(0.128462 -0.000219947 -0.000354421)
(0.128366 -0.000222685 -0.000245707)
(0.128479 -0.000224122 -0.000296364)
(0.12835 -0.000218106 -0.000219339)
(0.128523 -0.000224449 -0.000299355)
(0.128417 -0.000228431 -0.000258123)
(0.128595 -0.000250798 -0.000361475)
(0.128549 -0.000261932 -0.000352795)
(0.128679 -0.000280969 -0.000439826)
(0.128644 -0.000278572 -0.000437886)
(0.12877 -0.000289802 -0.000542415)
(0.128702 -0.000287553 -0.000538106)
(0.128822 -0.00029271 -0.000594542)
(0.128741 -0.000271319 -0.000540469)
(0.128839 -0.000264148 -0.00059263)
(0.128703 -0.00024975 -0.000578735)
(0.12874 -0.000261304 -0.000625228)
(0.128618 -0.000251559 -0.000546617)
(0.128659 -0.000243527 -0.00062221)
(0.128532 -0.000219858 -0.000542734)
(0.128593 -0.000220798 -0.000583918)
(0.1285 -0.000211163 -0.000473901)
(0.128529 -0.000228314 -0.000534142)
(0.128435 -0.00023626 -0.000508391)
(0.128547 -0.00025459 -0.000605746)
(0.128421 -0.000249377 -0.000551619)
(0.12853 -0.000230036 -0.000618684)
(0.128358 -0.000223902 -0.000506747)
(0.128448 -0.000223402 -0.00055268)
(0.128217 -0.000234022 -0.000412349)
(0.131512 -0.000179105 -0.000388263)
(0.131423 -0.000185635 -0.000292832)
(0.131524 -0.000217692 -0.000359704)
(0.131428 -0.000237717 -0.000281353)
(0.131553 -0.000275048 -0.000318571)
(0.131485 -0.000273953 -0.000249432)
(0.131641 -0.000273749 -0.000313168)
(0.131568 -0.000243973 -0.000251532)
(0.131719 -0.000237486 -0.000308258)
(0.131677 -0.000208948 -0.000255457)
(0.13177 -0.000208562 -0.000333884)
(0.131748 -0.000194675 -0.000291993)
(0.131807 -0.000204437 -0.000381636)
(0.13179 -0.000191935 -0.000356073)
(0.131902 -0.00019661 -0.000446332)
(0.131893 -0.000183803 -0.000387516)
(0.132045 -0.000201486 -0.000461596)
(0.132046 -0.000197928 -0.000375744)
(0.132189 -0.000216252 -0.00044006)
(0.132184 -0.000203586 -0.000324018)
(0.132322 -0.00022434 -0.000360742)
(0.132272 -0.000238704 -0.000255847)
(0.132443 -0.000255158 -0.000309909)
(0.132346 -0.000258834 -0.000234085)
(0.132487 -0.000283528 -0.000317228)
(0.132378 -0.000280995 -0.00028365)
(0.132447 -0.000305265 -0.000384698)
(0.132301 -0.000290027 -0.000342157)
(0.132304 -0.000297626 -0.000407072)
(0.132204 -0.000275064 -0.000373978)
(0.132229 -0.000269598 -0.000464534)
(0.132152 -0.000234603 -0.00041813)
(0.132129 -0.000224807 -0.000469584)
(0.132029 -0.00018996 -0.000392631)
(0.131989 -0.000190523 -0.000478877)
(0.131894 -0.000165496 -0.000434917)
(0.131859 -0.000182647 -0.000488952)
(0.131787 -0.000171151 -0.000418322)
(0.131762 -0.000183613 -0.000480149)
(0.131705 -0.000168032 -0.000378388)
(0.131627 -0.000205877 -0.000442254)
(0.131626 -0.000202977 -0.000347459)
(0.131597 -0.0002346 -0.000428071)
(0.13161 -0.000220166 -0.000345667)
(0.13156 -0.000258217 -0.000440017)
(0.131564 -0.00023948 -0.000380288)
(0.131531 -0.000237066 -0.000498171)
(0.131529 -0.00019016 -0.000412049)
(0.131504 -0.000199024 -0.000522021)
(0.131486 -0.000146298 -0.000396438)
(0.13416 -0.000216257 -0.000206888)
(0.134164 -0.000189074 -0.000182303)
(0.134151 -0.000195893 -0.0002233)
(0.13421 -0.000185613 -0.000175677)
(0.134214 -0.000201314 -0.000192931)
(0.134296 -0.000191809 -0.000143268)
(0.134327 -0.000204848 -0.000162427)
(0.134445 -0.000195727 -0.000107597)
(0.134495 -0.000220665 -0.000118186)
(0.134639 -0.000208407 -7.52526e-05)
(0.134661 -0.00023735 -0.000101431)
(0.134791 -0.000244677 -8.15852e-05)
(0.134819 -0.000264741 -0.000135063)
(0.134943 -0.000276005 -0.000127671)
(0.134948 -0.000302757 -0.00018492)
(0.13503 -0.000303434 -0.000174296)
(0.135008 -0.000312453 -0.00021656)
(0.135039 -0.000296688 -0.000191036)
(0.135021 -0.000295373 -0.000216328)
(0.135039 -0.000270028 -0.000163363)
(0.135023 -0.000270087 -0.000180858)
(0.135031 -0.00025818 -0.000130838)
(0.134992 -0.000263928 -0.000156606)
(0.134945 -0.000258232 -0.000136853)
(0.134824 -0.000278169 -0.000195263)
(0.13477 -0.000265305 -0.000204859)
(0.134635 -0.000281955 -0.000262283)
(0.134565 -0.000263809 -0.000232837)
(0.134438 -0.000279442 -0.000269817)
(0.134392 -0.000262986 -0.000243537)
(0.134278 -0.000280812 -0.000301426)
(0.134248 -0.00027648 -0.000248717)
(0.134159 -0.000265749 -0.000278578)
(0.134174 -0.00022066 -0.000232898)
(0.134097 -0.000224501 -0.000278123)
(0.13409 -0.000224114 -0.000244742)
(0.134009 -0.000243187 -0.000264684)
(0.134066 -0.000242215 -0.000231118)
(0.13403 -0.000240101 -0.000263473)
(0.134106 -0.000209823 -0.000201863)
(0.134012 -0.000205085 -0.000214321)
(0.134082 -0.000198678 -0.000172263)
(0.13399 -0.000212616 -0.000211245)
(0.134087 -0.000210609 -0.000163861)
(0.134024 -0.00021954 -0.000192618)
(0.134111 -0.000234778 -0.00013943)
(0.134008 -0.000226147 -0.000196502)
(0.134127 -0.000222465 -0.000161654)
(0.134077 -0.000206231 -0.000237171)
(0.134196 -0.000225624 -0.000194157)
(0.136535 -0.000293023 1.8395e-05)
(0.136614 -0.000287159 3.24769e-05)
(0.136613 -0.000294474 -1.17037e-05)
(0.136678 -0.000288273 2.81577e-05)
(0.136643 -0.000297955 5.83062e-06)
(0.136659 -0.000278311 6.01072e-05)
(0.136592 -0.000262183 5.12558e-05)
(0.136602 -0.000240633 0.000114126)
(0.136522 -0.000239906 0.000103349)
(0.13654 -0.000223788 0.000156707)
(0.136456 -0.00022924 0.000127419)
(0.136472 -0.000229636 0.000157542)
(0.136397 -0.000229395 0.000123124)
(0.13642 -0.000237797 0.000152187)
(0.136312 -0.000260431 0.000110706)
(0.136306 -0.000265559 0.000134705)
(0.136171 -0.000274971 9.08758e-05)
(0.136175 -0.000284291 0.00012348)
(0.136098 -0.000296115 9.09596e-05)
(0.136127 -0.000293222 0.000143169)
(0.136068 -0.00032249 0.000120708)
(0.136109 -0.00034787 0.000162753)
(0.136094 -0.000373418 0.00014486)
(0.136153 -0.000358325 0.000159248)
(0.136129 -0.000355191 0.00011174)
(0.136169 -0.000337111 0.000114511)
(0.136114 -0.000333597 7.71407e-05)
(0.136124 -0.00031087 0.000103451)
(0.136065 -0.000308677 6.52353e-05)
(0.13607 -0.000281066 6.89766e-05)
(0.136015 -0.000278345 1.76629e-05)
(0.135992 -0.000257941 3.56775e-05)
(0.135945 -0.0002479 -3.41251e-06)
(0.135944 -0.000215744 1.91908e-05)
(0.135951 -0.000229202 -1.04445e-05)
(0.13597 -0.000222958 1.15491e-05)
(0.135973 -0.000255055 -1.63494e-05)
(0.136021 -0.000260189 1.01679e-05)
(0.136062 -0.000273846 -3.46346e-05)
(0.136165 -0.000250208 1.17243e-05)
(0.136237 -0.000278821 -1.55542e-05)
(0.136351 -0.000277746 2.9243e-05)
(0.136409 -0.000304612 -6.67792e-06)
(0.136511 -0.000314744 4.38208e-05)
(0.136561 -0.000351731 4.14377e-05)
(0.13658 -0.000332611 9.92193e-05)
(0.13655 -0.000335228 6.42899e-05)
(0.136546 -0.000301136 8.61634e-05)
(0.136564 -0.000314127 2.17333e-05)
(0.13656 -0.000283667 3.06907e-05)
(0.137442 -0.000344722 0.000146729)
(0.137463 -0.000329782 0.000174195)
(0.137388 -0.000312966 0.000157506)
(0.137396 -0.000298086 0.000187226)
(0.137307 -0.000294016 0.000179734)
(0.137291 -0.000284918 0.000216336)
(0.137192 -0.000281721 0.000208338)
(0.137204 -0.000285847 0.000241248)
(0.13713 -0.000291192 0.000224407)
(0.137161 -0.000290086 0.00024175)
(0.137067 -0.000312257 0.000210138)
(0.137099 -0.000344455 0.00022185)
(0.137034 -0.00037059 0.000198567)
(0.137114 -0.000385178 0.000221895)
(0.137067 -0.000393574 0.00021296)
(0.137114 -0.000387646 0.000237385)
(0.137012 -0.000386147 0.000216729)
(0.137026 -0.000396024 0.000238765)
(0.136936 -0.000388517 0.000228539)
(0.136949 -0.000377356 0.000262223)
(0.136829 -0.000384125 0.000248126)
(0.136854 -0.000380102 0.000277442)
(0.136769 -0.000380545 0.000255894)
(0.136822 -0.000377572 0.000266036)
(0.136789 -0.000373103 0.000233232)
(0.13689 -0.000355647 0.000248685)
(0.13687 -0.000350261 0.00021263)
(0.136986 -0.000343062 0.000208154)
(0.136978 -0.000340949 0.000152833)
(0.137141 -0.000341306 0.000134344)
(0.137188 -0.000356068 7.8848e-05)
(0.137358 -0.000364989 7.39321e-05)
(0.13738 -0.000368481 3.30464e-05)
(0.137547 -0.000367955 3.90337e-05)
(0.137557 -0.000371052 2.90746e-05)
(0.137676 -0.000360555 6.22368e-05)
(0.137611 -0.000355163 6.37434e-05)
(0.137694 -0.000351236 9.00921e-05)
(0.137625 -0.000340997 6.05933e-05)
(0.137716 -0.000340007 7.4639e-05)
(0.137649 -0.000343196 5.25365e-05)
(0.137739 -0.00033951 8.18408e-05)
(0.137658 -0.000326868 7.1208e-05)
(0.137729 -0.000342058 0.000107259)
(0.137635 -0.000349418 0.000122609)
(0.137699 -0.000356873 0.000164651)
(0.137598 -0.000356653 0.000149674)
(0.13763 -0.000371323 0.000170394)
(0.13754 -0.000367483 0.000134561)
(0.137545 -0.000350133 0.000143217)
(0.138123 -0.00030773 6.04034e-05)
(0.138173 -0.000321907 8.79207e-05)
(0.13814 -0.000349923 7.50059e-05)
(0.138194 -0.000355122 9.09513e-05)
(0.138176 -0.000345166 8.52244e-05)
(0.138211 -0.00033779 0.000113432)
(0.138135 -0.000336903 0.000113226)
(0.138139 -0.000337052 0.000131363)
(0.138055 -0.000339415 0.000123854)
(0.138055 -0.000350492 0.000137648)
(0.137944 -0.000368847 0.000128391)
(0.137943 -0.000372397 0.000142776)
(0.137863 -0.00037206 0.000143696)
(0.137892 -0.000382193 0.000173731)
(0.137856 -0.000388456 0.000185978)
(0.137915 -0.00037225 0.000213501)
(0.137883 -0.000369273 0.000202124)
(0.137941 -0.000372837 0.000219323)
(0.13794 -0.000367838 0.000215807)
(0.138034 -0.000360621 0.000241832)
(0.138037 -0.000366737 0.000227275)
(0.138158 -0.000368809 0.000239097)
(0.138184 -0.000378263 0.000221576)
(0.138292 -0.000382439 0.000231703)
(0.138326 -0.000381775 0.000227336)
(0.138417 -0.000365343 0.000247209)
(0.138415 -0.000354054 0.000217194)
(0.138521 -0.000339435 0.000201682)
(0.138496 -0.000331903 0.00014235)
(0.138581 -0.000333217 0.000125154)
(0.138515 -0.000339637 8.10405e-05)
(0.138557 -0.000336541 7.88656e-05)
(0.138488 -0.000342925 4.59788e-05)
(0.138534 -0.000330997 4.39075e-05)
(0.138494 -0.000325452 3.48978e-05)
(0.13857 -0.000307049 7.11065e-05)
(0.138521 -0.000311061 7.21314e-05)
(0.138567 -0.000313235 8.91875e-05)
(0.138474 -0.000316343 6.14066e-05)
(0.138486 -0.000305765 6.05009e-05)
(0.138396 -0.000320556 3.20054e-05)
(0.138451 -0.000319312 4.84917e-05)
(0.138377 -0.000332375 4.06789e-05)
(0.138423 -0.00035462 6.29043e-05)
(0.138346 -0.000371316 6.09151e-05)
(0.138377 -0.000352874 8.49197e-05)
(0.138281 -0.000342505 6.28241e-05)
(0.138279 -0.000325612 7.12985e-05)
(0.138199 -0.000316965 5.30763e-05)
(0.138193 -0.000295281 6.20415e-05)
(0.138899 -0.000465982 -0.000193082)
(0.138943 -0.000477765 -0.000164613)
(0.138903 -0.000493401 -0.000162182)
(0.138943 -0.000498973 -0.000136116)
(0.138928 -0.000484436 -0.000117457)
(0.13899 -0.000492645 -7.78185e-05)
(0.138982 -0.000491037 -7.17504e-05)
(0.139051 -0.000481571 -5.18636e-05)
(0.139035 -0.000473011 -3.72365e-05)
(0.139089 -0.000492096 -2.14901e-06)
(0.139077 -0.000497957 1.32657e-05)
(0.139162 -0.000506511 4.36253e-05)
(0.139152 -0.000516655 5.69889e-05)
(0.139226 -0.000531949 9.26709e-05)
(0.139227 -0.000522092 0.000110039)
(0.139309 -0.000505192 0.000139883)
(0.139293 -0.000504129 0.000140871)
(0.139346 -0.0004952 0.000159387)
(0.139341 -0.0004925 0.000173494)
(0.139395 -0.000504936 0.000202255)
(0.139355 -0.000520379 0.000189874)
(0.139389 -0.000536163 0.000202694)
(0.139361 -0.000541678 0.000191323)
(0.139374 -0.000550714 0.000205351)
(0.139352 -0.000548862 0.000193031)
(0.139405 -0.00053431 0.00019747)
(0.139384 -0.000525931 0.000155473)
(0.139459 -0.000527777 0.000139265)
(0.139409 -0.000520557 9.19795e-05)
(0.139433 -0.000525456 7.93535e-05)
(0.139332 -0.000516068 4.26836e-05)
(0.139359 -0.000518523 2.88004e-05)
(0.13927 -0.000520271 4.39737e-06)
(0.139315 -0.000524063 -1.0632e-06)
(0.139218 -0.000508806 -4.79574e-06)
(0.139276 -0.000504441 1.5791e-05)
(0.139174 -0.000472784 -1.04581e-06)
(0.139213 -0.000442244 -1.17829e-05)
(0.13911 -0.000410599 -4.32534e-05)
(0.139145 -0.000403661 -6.92137e-05)