/*--------------------------------*- C++ -*----------------------------------*\
| =========                 |                                                 |
| \\      /  F ield         | OpenFOAM: The Open Source CFD Toolbox           |
|  \\    /   O peration     | Version:  2.3.0                                 |
|   \\  /    A nd           | Web:      www.OpenFOAM.org                      |
|    \\/     M anipulation  |                                                 |
\*---------------------------------------------------------------------------*/
FoamFile
{
    version     2.0;
    format      ascii;
    class       volScalarField;
    location    "100";
    object      nuSgs;
}
// * * * * * * * * * * * * * * * * * * * * * * * * * * * * * * * * * * * * * //

dimensions      [0 2 -1 0 0 0 0];

internalField   nonuniform List<scalar> 
90000
(
3.01003e-08
3.56842e-08
6.78629e-08
7.78217e-08
9.58601e-08
1.36889e-07
1.29517e-07
1.08096e-07
1.22469e-07
1.12292e-07
1.07834e-07
1.21964e-07
1.16703e-07
9.08086e-08
6.98903e-08
8.04893e-08
5.90365e-08
4.97273e-08
4.84713e-08
3.21489e-08
1.66445e-08
-1.71031e-08
-3.02357e-08
-5.05905e-08
-7.16269e-08
-6.57694e-08
-7.77825e-08
-6.56386e-08
-3.88116e-08
-2.44788e-08
-9.50121e-11
-7.95065e-09
-1.9378e-08
-2.53329e-08
-1.8775e-08
1.62527e-10
-2.26373e-09
-4.84238e-09
7.16773e-09
3.03253e-09
1.27747e-08
1.74631e-08
-1.9602e-08
-2.43301e-08
1.11338e-10
6.80666e-09
-1.14489e-09
-4.29753e-09
1.21712e-09
1.84346e-08
4.36644e-08
5.85004e-08
1.20278e-07
1.45945e-07
1.6789e-07
2.2774e-07
2.1954e-07
1.81066e-07
2.00237e-07
1.87816e-07
1.87779e-07
2.21901e-07
2.23696e-07
1.8192e-07
1.45987e-07
1.60121e-07
1.22318e-07
1.04927e-07
9.3065e-08
6.55741e-08
4.07822e-08
-1.46912e-08
-4.10467e-08
-7.65107e-08
-1.0644e-07
-1.03305e-07
-1.25254e-07
-1.1219e-07
-7.51695e-08
-4.95099e-08
-1.00949e-08
-1.49429e-08
-2.36781e-08
-3.50679e-08
-3.26683e-08
-8.7283e-09
-1.1558e-08
-1.06465e-08
6.93251e-09
1.62749e-09
2.24608e-08
2.9575e-08
-2.59333e-08
-3.5434e-08
-3.24339e-09
4.94317e-09
-5.60671e-09
-1.12588e-08
-4.26115e-09
2.14675e-08
4.04433e-08
6.43912e-08
1.78134e-07
2.5101e-07
2.75204e-07
3.50476e-07
3.49488e-07
2.74548e-07
2.88298e-07
2.72003e-07
2.76972e-07
3.51544e-07
3.93508e-07
3.50807e-07
2.876e-07
3.06323e-07
2.53004e-07
2.28235e-07
1.97639e-07
1.52739e-07
1.22357e-07
3.92457e-08
-1.22979e-08
-7.77676e-08
-1.24866e-07
-1.32464e-07
-1.78364e-07
-1.81166e-07
-1.46861e-07
-1.08956e-07
-4.70456e-08
-4.04848e-08
-3.14802e-08
-4.18826e-08
-4.70402e-08
-1.954e-08
-3.08216e-08
-2.93996e-08
-4.74138e-09
-1.19111e-08
3.18947e-08
5.34681e-08
-2.89756e-08
-5.14782e-08
-6.06637e-09
-2.4593e-09
-2.51633e-08
-3.45962e-08
-3.03619e-08
2.62096e-09
-2.23405e-08
-1.43698e-08
1.43378e-07
3.07974e-07
3.66554e-07
4.44755e-07
4.56953e-07
3.26266e-07
3.02912e-07
2.71918e-07
2.65751e-07
3.8467e-07
5.14003e-07
5.32481e-07
4.55919e-07
4.89952e-07
4.36131e-07
4.17036e-07
3.79049e-07
3.11426e-07
2.87332e-07
1.89972e-07
1.1463e-07
1.20065e-08
-6.54439e-08
-8.68401e-08
-1.55639e-07
-1.94321e-07
-2.03678e-07
-1.85874e-07
-1.20932e-07
-1.06793e-07
-6.4845e-08
-4.28973e-08
-3.25786e-08
9.30446e-09
-3.03024e-08
-6.05968e-08
-4.9989e-08
-6.75067e-08
-8.1102e-10
5.91038e-08
-3.97751e-08
-7.69908e-08
1.51564e-09
5.28208e-09
-6.29845e-08
-8.24633e-08
-7.83027e-08
-5.36117e-08
-1.25383e-07
-1.98314e-07
-2.126e-08
2.52986e-07
4.15416e-07
5.17994e-07
5.40822e-07
3.37685e-07
2.30939e-07
1.58026e-07
1.16034e-07
2.43773e-07
4.52953e-07
5.94231e-07
5.59787e-07
6.29133e-07
6.04948e-07
6.16044e-07
6.08605e-07
5.22721e-07
5.09554e-07
4.17933e-07
3.49418e-07
2.35637e-07
1.18568e-07
4.60663e-08
-3.79712e-08
-9.54286e-08
-1.74203e-07
-2.16535e-07
-1.94688e-07
-2.13765e-07
-1.51657e-07
-7.02354e-08
8.02849e-09
1.17638e-07
5.21957e-08
-5.50412e-08
-1.16155e-07
-2.0253e-07
-1.3243e-07
-1.96424e-08
-1.04279e-07
-1.45464e-07
-1.88493e-08
4.47197e-08
-8.04091e-08
-1.41143e-07
-1.14088e-07
-9.6195e-08
-1.27667e-07
-4.34827e-07
-3.2272e-07
6.20578e-08
4.08322e-07
6.59464e-07
7.23679e-07
3.94096e-07
1.30975e-07
-2.14105e-08
-1.08325e-07
-2.04333e-08
2.10548e-07
4.57216e-07
4.97792e-07
5.92314e-07
6.10138e-07
6.56225e-07
7.27188e-07
6.61112e-07
6.63672e-07
5.9427e-07
5.74322e-07
5.20387e-07
4.32741e-07
3.12374e-07
1.81485e-07
1.47592e-07
-1.99588e-08
-1.88276e-07
-1.99241e-07
-2.83257e-07
-2.54808e-07
-1.31567e-07
2.09897e-08
2.67735e-07
2.37811e-07
4.45826e-08
-1.10612e-07
-3.75822e-07
-4.03101e-07
-2.39142e-07
-2.61771e-07
-2.91882e-07
-1.60296e-07
-1.54755e-08
-8.99274e-08
-1.67288e-07
-9.86734e-08
-9.85324e-09
1.23166e-07
-3.5182e-07
-4.77724e-07
-1.8152e-07
3.11626e-07
9.88826e-07
1.43994e-06
9.02133e-07
1.84859e-07
-2.55814e-07
-3.80663e-07
-3.74817e-07
-1.20576e-07
2.10971e-07
3.33737e-07
4.28062e-07
4.64571e-07
4.92246e-07
5.87275e-07
5.36512e-07
5.52199e-07
5.11947e-07
5.41907e-07
6.09126e-07
6.53056e-07
6.39664e-07
4.55844e-07
4.85734e-07
4.25196e-07
2.25754e-08
-2.27668e-07
-3.29078e-07
-3.14493e-07
-1.40728e-07
4.45879e-08
3.70392e-07
4.23712e-07
1.50445e-07
-3.8021e-08
-3.90975e-07
-6.40788e-07
-6.19784e-07
-5.70597e-07
-5.43366e-07
-4.10177e-07
-2.53812e-07
-2.49399e-07
-2.37652e-07
-1.25298e-07
1.11926e-07
2.02524e-07
5.39255e-08
-9.28929e-09
1.36458e-07
2.82097e-07
1.08822e-06
2.58168e-06
2.66159e-06
1.23824e-06
-3.33145e-07
-8.27521e-07
-9.94398e-07
-7.68228e-07
-1.40123e-07
1.46422e-07
2.68309e-07
3.42261e-07
3.51408e-07
4.29396e-07
2.89163e-07
2.47758e-07
2.2025e-07
2.18491e-07
3.06707e-07
4.6251e-07
7.67068e-07
6.59091e-07
6.53368e-07
8.63559e-07
6.522e-07
8.53717e-08
-3.01021e-07
-5.27657e-07
-2.91661e-07
1.64141e-07
4.67829e-07
5.39901e-07
2.05789e-07
-3.61766e-08
-2.74604e-07
-5.18993e-07
-7.9768e-07
-9.07282e-07
-7.70985e-07
-5.58179e-07
-4.98065e-07
-5.63685e-07
-4.95482e-07
-3.10323e-07
-1.26636e-08
7.9259e-08
2.17663e-07
3.79703e-07
5.20641e-07
4.80682e-07
7.09114e-07
1.82689e-06
3.48377e-06
3.36262e-06
8.64013e-07
-1.04179e-06
-1.62829e-06
-1.82295e-06
-8.90046e-07
-1.2733e-07
1.13507e-07
2.8383e-07
4.39667e-07
8.40072e-07
4.74412e-07
8.86325e-09
-8.90619e-09
-2.89708e-08
-1.02095e-08
6.31473e-08
4.63728e-07
6.2566e-07
5.88502e-07
9.5098e-07
1.16736e-06
6.08273e-07
1.05949e-07
-1.52948e-07
-5.93006e-07
-3.24791e-07
4.18962e-07
6.20558e-07
3.44643e-07
4.74897e-08
-2.05506e-07
-2.11231e-07
-5.68767e-07
-1.03766e-06
-9.60559e-07
-4.43667e-07
-3.29143e-07
-4.50877e-07
-6.63157e-07
-6.54798e-07
-2.65712e-07
5.44131e-08
3.9234e-07
1.05224e-06
1.26016e-06
7.72827e-07
6.65986e-07
7.82407e-07
1.58007e-06
3.44402e-06
2.4992e-06
-4.28476e-07
-1.70711e-06
-2.45118e-06
-1.58102e-06
-3.50115e-07
-3.36163e-08
2.14421e-07
9.36901e-07
2.22099e-06
2.01524e-06
4.61112e-07
-7.71223e-08
-2.4271e-07
-3.35367e-07
-2.11259e-07
7.46736e-08
3.175e-07
3.16658e-07
6.52299e-07
1.15814e-06
8.73104e-07
3.26299e-07
3.80215e-07
2.64574e-07
-7.7948e-07
-8.50756e-07
3.24954e-07
4.27898e-07
3.81194e-07
-1.89366e-08
9.24507e-08
-1.43462e-07
-1.03329e-06
-9.84417e-07
-4.84306e-07
-2.15361e-07
-6.79122e-08
-1.40934e-07
-3.05312e-07
-2.29562e-07
6.20915e-07
9.85535e-07
2.62785e-06
5.35188e-06
2.8361e-06
1.10526e-06
8.07182e-07
4.57404e-07
1.57046e-06
2.17619e-06
1.00719e-07
-1.15897e-06
-2.58585e-06
-2.01253e-06
-3.30222e-07
1.42278e-07
2.40943e-07
1.24444e-06
2.90973e-06
2.35671e-06
8.79489e-07
1.03148e-06
1.0649e-06
-1.1719e-07
3.40928e-07
-4.82074e-07
1.07688e-07
2.61913e-08
1.70852e-07
6.02131e-07
5.1225e-07
2.14825e-07
3.57804e-07
8.91376e-07
1.78831e-07
-1.37887e-06
-8.86862e-07
1.03841e-07
5.76918e-07
3.56277e-07
3.62013e-07
3.78263e-07
-1.28316e-06
-1.20728e-06
-1.68813e-07
-7.38617e-08
2.16076e-07
3.36346e-07
2.52668e-07
5.57564e-07
1.21847e-06
1.03978e-06
3.54684e-06
6.27508e-06
3.47989e-06
1.66103e-06
1.62068e-06
1.84725e-07
5.83646e-07
1.02194e-06
-1.48708e-07
-6.58979e-07
-3.12712e-06
-1.99228e-06
-1.00824e-07
7.30435e-07
7.8242e-07
1.0958e-06
2.82098e-06
2.47936e-06
8.11058e-07
1.44519e-06
2.04744e-06
6.32626e-07
2.88092e-08
4.27033e-08
5.21943e-07
1.90642e-07
-8.94108e-07
-1.03376e-06
-6.46158e-07
-2.41065e-07
-8.99034e-08
7.37283e-07
8.79049e-07
-4.31437e-07
-9.06856e-07
-3.68375e-07
4.06594e-07
4.18166e-07
4.144e-07
2.4479e-07
-2.07706e-06
-1.75122e-06
3.1722e-07
4.34693e-07
6.86548e-07
1.04185e-06
4.17169e-07
6.81331e-07
1.32095e-06
1.10612e-06
8.48143e-07
3.51367e-06
6.14421e-07
-1.33729e-06
6.41196e-07
1.62464e-06
-1.97415e-06
-6.51884e-07
-9.00415e-07
1.13443e-08
-3.47009e-06
-4.50887e-06
2.81335e-07
1.60703e-06
1.41864e-06
8.77568e-07
2.12017e-06
2.43456e-06
7.80382e-07
6.9023e-07
7.35372e-07
-1.76114e-07
-1.10426e-06
-2.42844e-08
1.40758e-06
8.48992e-07
-3.4035e-07
-2.23999e-06
-4.43552e-06
-1.79699e-06
-1.11585e-06
-3.04519e-07
7.87935e-07
1.63862e-07
-2.78834e-07
-3.36777e-07
1.54022e-07
7.85939e-07
2.31049e-06
1.85124e-07
-2.35946e-06
-1.72013e-06
6.42818e-07
1.47563e-07
-1.67325e-07
1.17514e-06
5.76711e-07
1.1265e-07
1.73236e-06
2.61197e-06
2.10888e-07
-7.73074e-07
-6.6094e-07
-1.95331e-06
-1.258e-06
1.52483e-06
2.10808e-07
-1.26141e-07
1.79165e-06
3.02254e-06
-1.64656e-07
-2.9188e-06
1.54188e-06
2.31538e-06
1.96309e-06
7.12e-07
1.42351e-06
2.3615e-06
1.1473e-06
-3.43627e-07
-2.05243e-06
-2.00604e-06
-1.86182e-06
1.35404e-06
2.85996e-06
1.00416e-06
-8.81465e-07
-2.01645e-06
-3.64439e-06
-2.56228e-06
-2.88861e-06
-3.28367e-06
4.53525e-07
1.30639e-06
1.75125e-06
7.64454e-07
1.40027e-06
3.76451e-06
4.93625e-06
2.47562e-06
-2.54305e-07
-1.52413e-06
-5.80934e-07
-1.22193e-06
-2.39091e-06
-1.84114e-06
-4.34294e-08
-3.88033e-07
6.37142e-06
6.38007e-06
4.92574e-07
-1.89081e-06
-1.44456e-06
-1.37111e-06
-3.92954e-06
-5.4521e-06
-3.32185e-06
-1.69937e-07
2.76686e-07
-9.98843e-07
2.74539e-07
-1.38945e-06
1.41381e-07
1.63481e-06
6.90155e-07
3.76309e-07
1.35229e-06
2.57939e-06
1.27963e-06
-1.28724e-06
-4.5575e-06
-2.858e-06
-1.63917e-06
2.6712e-06
4.6742e-06
3.17923e-07
-2.22887e-06
-3.17805e-06
-3.17361e-06
-1.95866e-06
-2.23264e-06
-2.00503e-06
1.82286e-06
4.36902e-06
4.4807e-06
2.91424e-06
1.32218e-06
4.73519e-06
7.45871e-06
1.44386e-06
-3.70703e-07
-1.54324e-06
-2.9674e-06
-2.44943e-06
-2.52623e-06
-2.22748e-06
-1.84433e-06
-3.92375e-07
6.05597e-06
5.07806e-06
-1.68117e-06
-4.42141e-06
-3.21146e-06
-4.33871e-07
-3.87748e-06
-1.07346e-05
-8.52754e-06
-1.64806e-06
5.57265e-07
-3.3576e-06
-7.52835e-06
-5.69948e-06
-1.52514e-07
9.95668e-07
-4.49052e-07
9.88257e-07
1.33308e-06
2.55251e-06
-3.40367e-07
-2.43375e-06
-4.50751e-06
-2.04099e-06
-8.76672e-07
1.88229e-06
2.65776e-06
1.09685e-06
-2.8534e-06
-2.57467e-06
-2.83791e-06
-2.51075e-06
-2.52233e-07
1.84951e-06
2.94715e-06
6.19803e-06
5.80756e-06
4.14487e-06
5.02199e-07
1.66998e-06
7.76201e-06
-2.78567e-06
-4.4366e-06
-6.5487e-06
-3.25312e-06
-5.32136e-07
-6.69238e-07
-5.52305e-07
-1.07677e-06
-5.10095e-07
3.79407e-06
2.35274e-06
-6.75974e-07
-1.12184e-06
-1.55351e-06
-1.39518e-06
-1.641e-06
-1.18006e-05
-1.26653e-05
-4.15581e-06
1.19383e-06
-2.29596e-06
-8.32862e-06
-6.70462e-06
-1.46471e-06
2.0415e-07
-8.39465e-07
-1.03062e-06
-2.25311e-06
1.02113e-06
-3.48228e-06
-3.67142e-06
5.70362e-07
1.66992e-06
4.05895e-06
1.85563e-06
1.85549e-06
3.95296e-07
-1.14941e-06
-3.07605e-06
-3.50335e-06
-2.32634e-06
-1.57762e-06
2.43541e-06
3.6982e-06
8.72345e-06
4.9495e-06
2.03786e-06
1.30672e-06
1.15787e-07
1.38094e-07
-2.86124e-06
-2.82065e-06
-2.60683e-06
1.83491e-06
5.3429e-06
2.53666e-06
9.02433e-07
-4.94623e-07
-1.12002e-06
2.14877e-06
1.70259e-06
7.66739e-07
1.7452e-06
1.26959e-06
-4.01753e-07
-1.73684e-06
-7.53067e-06
-6.49669e-06
1.47707e-06
6.98038e-06
5.8887e-06
1.62491e-06
-1.41552e-07
6.37178e-07
1.11749e-06
1.25774e-06
3.4237e-07
-2.97772e-06
-1.20731e-06
-1.28745e-06
3.0462e-07
4.19284e-06
2.05053e-06
3.68797e-06
3.2695e-06
6.63861e-07
-3.51538e-07
4.46014e-07
-9.04764e-07
-1.67671e-06
-1.76208e-06
-2.66592e-06
2.72077e-06
3.07075e-06
6.56607e-06
3.50328e-06
-4.23953e-07
-1.69515e-07
-9.31687e-07
-2.0935e-07
-1.96527e-08
-1.25551e-06
-1.22895e-06
3.16053e-06
6.29046e-06
3.86338e-06
1.40877e-06
-5.88192e-07
-1.26087e-06
7.89639e-06
3.02037e-06
-5.28196e-07
2.30912e-07
4.31917e-06
2.42952e-06
7.54082e-08
-1.60031e-06
3.8966e-06
8.20313e-06
1.31213e-05
1.27347e-05
7.59121e-06
3.75739e-06
1.34495e-06
3.163e-06
3.50681e-06
3.51125e-06
-2.46118e-06
-1.05857e-06
-2.30476e-07
1.7793e-06
6.73902e-06
2.83114e-06
1.34933e-06
3.56693e-07
-1.43291e-06
-7.70195e-07
1.54186e-06
2.32559e-06
9.20178e-07
2.28748e-07
-8.22954e-07
-2.83701e-08
-1.2153e-06
8.7589e-07
1.85272e-06
-1.12094e-06
-1.03316e-06
-9.48172e-07
1.07153e-06
4.76155e-07
-1.85464e-06
-4.39803e-06
-2.65607e-06
3.50623e-06
4.52728e-06
3.08312e-06
8.93368e-07
1.93966e-06
1.34166e-05
2.30569e-07
-3.83633e-06
-3.11938e-06
3.97724e-06
4.94526e-06
1.93665e-06
8.00014e-07
5.49074e-06
6.67901e-06
1.05647e-05
1.35245e-05
9.82859e-06
6.26287e-06
1.74345e-06
5.95922e-07
5.97345e-07
2.34752e-06
1.10568e-06
3.48748e-06
2.98872e-06
2.96997e-06
5.64813e-06
4.36728e-06
1.3046e-06
-1.16377e-06
-3.65877e-06
-5.32065e-07
2.23331e-06
3.61722e-06
2.81599e-06
2.03996e-06
9.13638e-07
-7.20205e-07
-6.50201e-06
-5.81578e-06
7.35356e-07
4.26736e-07
2.08258e-06
3.18039e-06
3.97964e-06
2.26914e-06
-9.05785e-07
-5.2551e-06
-1.00956e-05
-5.86463e-07
1.46105e-06
3.06058e-06
4.56743e-06
1.05665e-05
7.66769e-06
-4.16462e-06
-7.38824e-06
-8.51211e-06
-1.9073e-07
6.8086e-06
4.17835e-06
1.73879e-06
5.74873e-06
4.90068e-06
5.27145e-06
9.59374e-06
9.91256e-06
8.59659e-06
3.65966e-06
-3.43758e-06
-5.01331e-06
2.68032e-06
4.13914e-06
-3.073e-07
1.56037e-06
5.68679e-06
7.69786e-06
6.22295e-06
2.10402e-06
-1.29199e-06
-3.9423e-06
-1.95687e-06
1.24316e-06
5.11106e-06
5.88558e-06
4.81583e-06
2.02036e-06
5.06798e-07
-1.36279e-06
-1.36848e-06
4.55401e-07
5.60238e-07
3.96296e-06
4.95842e-06
3.77554e-06
1.91724e-06
8.26801e-07
-2.1347e-07
2.01644e-06
4.8375e-06
2.2928e-06
2.76559e-06
7.64089e-06
1.65308e-05
6.46852e-07
-2.69666e-06
-6.89013e-06
-1.20917e-05
-7.68517e-07
9.47943e-06
5.59971e-06
8.81242e-07
3.43462e-06
4.90819e-06
3.6564e-06
4.98711e-06
6.43615e-06
5.41766e-06
3.47108e-06
1.29572e-06
-4.99902e-06
-1.9803e-06
-3.8591e-06
-6.63083e-06
-2.38822e-06
4.69836e-06
8.45193e-06
5.65578e-06
6.50411e-07
-1.79035e-06
-3.06867e-06
-1.0097e-06
2.3075e-06
6.13007e-06
1.03788e-05
1.04608e-05
6.80515e-06
1.04305e-06
5.92417e-07
4.12479e-07
6.32813e-07
4.63462e-07
3.13262e-06
4.81694e-06
3.98466e-06
3.05484e-07
-1.27288e-06
1.21207e-07
2.60023e-06
2.34712e-06
3.69961e-06
4.82799e-06
1.00408e-05
9.89549e-06
-6.11231e-06
-3.59813e-06
-5.73741e-06
-2.81193e-06
1.80314e-05
1.89331e-05
6.22317e-06
1.17669e-06
4.69247e-06
7.25742e-06
1.46156e-06
2.85767e-06
5.27749e-06
4.64155e-06
3.54528e-06
1.6902e-06
-5.25167e-06
-5.80152e-06
-4.84322e-06
-3.11284e-06
1.54336e-07
6.12411e-06
1.30227e-05
1.19974e-05
5.25674e-06
-6.81836e-07
-5.09154e-07
4.98548e-06
6.4775e-06
3.85877e-06
8.29545e-06
1.40105e-05
1.29327e-05
3.90244e-06
-1.79135e-06
-1.09772e-06
-5.55021e-08
3.39072e-06
5.68083e-06
6.68039e-06
5.82274e-06
6.72428e-07
-1.66984e-06
-1.47448e-06
1.88003e-06
3.07061e-06
5.72866e-06
5.73643e-06
8.61869e-06
3.32719e-07
-2.67315e-06
-5.68757e-07
-6.71763e-06
-6.70689e-06
1.28806e-05
1.79333e-05
1.33153e-05
1.07715e-05
1.5755e-05
1.72374e-05
7.06827e-06
1.17819e-05
1.59403e-05
1.46175e-05
9.06942e-06
4.6887e-06
-2.11068e-07
-6.33711e-07
-4.60471e-06
-5.39288e-06
-4.025e-06
1.60447e-06
8.96786e-06
1.05679e-05
7.89452e-06
4.45806e-06
4.21129e-06
4.59884e-06
1.45339e-06
-6.64893e-07
7.00108e-06
1.27977e-05
1.35544e-05
6.10162e-06
-1.34066e-06
-3.58644e-06
-1.53464e-06
4.73009e-06
7.50952e-06
5.01164e-06
1.55994e-06
7.5984e-07
5.37421e-07
1.08101e-06
4.54124e-06
5.1955e-06
7.05073e-06
5.56608e-06
1.12654e-05
4.35678e-06
1.33669e-06
8.98824e-08
-5.75096e-06
-1.37623e-05
1.32547e-06
2.11805e-05
2.68469e-05
2.27683e-05
1.57617e-05
9.66017e-06
2.88908e-06
8.32234e-06
1.27825e-05
1.24455e-05
7.68608e-06
2.77393e-06
-2.96918e-07
-9.21263e-07
1.09911e-06
-1.22371e-06
-4.88844e-07
4.44814e-06
3.92026e-06
2.26294e-06
4.44476e-06
4.65358e-06
6.09248e-06
6.60827e-06
-2.46761e-07
-7.64307e-06
9.02857e-06
1.25466e-05
1.31433e-05
8.54578e-06
-1.5118e-06
-1.5621e-05
-8.92893e-06
4.46553e-06
1.09421e-05
-8.28766e-07
-2.67812e-07
1.15278e-06
-7.6334e-07
6.89917e-06
1.09469e-05
4.50419e-06
5.23598e-06
7.13467e-06
7.91828e-06
1.63244e-06
-3.01414e-06
-2.17022e-06
-5.95525e-06
-9.23451e-06
2.952e-06
9.18354e-06
1.15324e-05
1.25556e-05
7.21267e-06
5.07547e-06
5.88253e-06
3.34762e-06
2.31348e-06
1.64175e-06
2.83674e-07
-5.22454e-07
-1.63273e-06
-3.52218e-06
-5.23263e-07
3.46524e-06
8.68599e-06
2.2921e-05
2.70683e-05
1.88664e-05
8.41419e-06
-4.2995e-07
5.46894e-08
3.1518e-06
2.39438e-06
-1.30854e-06
1.99571e-06
7.57732e-06
5.68008e-06
4.14489e-06
8.68028e-07
-2.78976e-06
9.43023e-08
3.10583e-06
-3.62688e-06
-1.14869e-05
-1.56431e-06
3.43751e-07
1.7736e-06
1.085e-05
1.53193e-05
6.45535e-06
4.44682e-06
2.37738e-06
-5.09788e-06
-4.15884e-06
-1.01537e-06
-2.32461e-06
-3.80698e-06
-2.63652e-07
5.17809e-06
1.05729e-05
8.36352e-06
5.93026e-06
-2.12874e-06
-7.21356e-07
6.52977e-06
1.04967e-05
1.08922e-05
8.35917e-06
7.4859e-07
-3.39884e-06
-1.24619e-06
-1.18956e-06
-1.14417e-06
3.52922e-06
2.87088e-06
3.6261e-06
4.75065e-06
8.18332e-06
1.22364e-05
6.32587e-06
2.94573e-06
7.89596e-07
9.55284e-07
1.50713e-06
9.31318e-07
5.93387e-06
1.25771e-05
1.33512e-05
7.57133e-06
1.41686e-06
1.77099e-06
-5.70209e-06
-1.80194e-05
-2e-05
-3.4216e-06
5.4873e-06
9.98208e-06
1.75867e-05
1.66395e-05
1.1049e-05
1.37396e-05
1.03544e-05
8.77341e-07
8.9168e-07
1.51232e-06
-8.40354e-07
-3.13276e-06
1.45144e-06
9.67703e-06
1.37774e-05
7.74875e-06
-3.3639e-06
-9.85172e-06
-7.0642e-06
-1.49673e-06
6.85549e-07
7.4997e-06
1.22758e-05
3.52667e-06
-1.75789e-06
-4.9909e-06
-4.14297e-06
5.57667e-06
1.47254e-05
8.0492e-06
7.73925e-07
3.02822e-06
4.56747e-06
6.05643e-06
8.79646e-06
1.39787e-05
1.03514e-05
7.43094e-06
6.50713e-06
8.93957e-06
1.2194e-05
6.96018e-06
3.61319e-07
4.61955e-07
-1.87765e-06
-5.06146e-06
-1.0607e-05
-2e-05
-3.33771e-06
2.38704e-05
1.64905e-05
8.80368e-06
2.9301e-06
1.09807e-05
1.73896e-05
9.96698e-06
8.79405e-06
1.3441e-06
2.54642e-06
-1.1152e-05
-4.84165e-06
5.08051e-06
8.68713e-06
8.60938e-06
4.54067e-06
4.69373e-06
6.59706e-06
1.39148e-06
-2.78813e-06
-1.19182e-06
-3.2073e-07
-1.745e-07
9.94238e-06
1.67307e-05
1.86517e-05
1.2355e-05
1.26881e-05
4.29255e-06
5.6979e-06
-1.17063e-06
-7.56549e-07
-5.10804e-07
2.53715e-06
4.78291e-07
-1.8461e-06
-1.25259e-06
-1.59262e-06
-1.62714e-06
-1.20108e-05
-1.48018e-05
-3.46488e-06
-2.77099e-06
1.17287e-06
3.43798e-05
2.3643e-05
2.02432e-05
7.97372e-07
2.70407e-07
8.46722e-06
1.14998e-05
2.85543e-06
2.94867e-06
8.84298e-06
2.73167e-05
2.96544e-05
8.99451e-06
-2.42178e-06
-1.72084e-06
-7.97918e-06
-9.56194e-06
-4.04008e-06
1.08593e-05
1.98487e-05
1.53021e-05
6.6361e-06
-1.64778e-07
3.62563e-06
2.12385e-05
1.62579e-05
5.35431e-06
3.00297e-06
5.78643e-06
1.05617e-05
1.34944e-05
1.3814e-05
1.01627e-05
7.58474e-06
-9.84118e-06
-2e-05
-2e-05
-2e-05
-4.16054e-06
2.03882e-06
7.71587e-06
9.78062e-06
8.67366e-06
-6.76703e-06
-9.68431e-06
-7.70891e-06
-3.46619e-06
3.07844e-06
-2.16692e-06
-1.1267e-05
-2.51536e-06
1.03163e-05
1.14415e-05
-2e-05
-1.28679e-05
2.83062e-05
3.49657e-05
-1.8492e-05
-2e-05
-2e-05
-1.12393e-05
2.23976e-05
2.13901e-05
8.78236e-06
7.04433e-07
-3.16994e-06
1.18792e-08
2.45497e-08
3.02048e-08
-9.10258e-09
3.5845e-08
8.66584e-08
4.90211e-08
7.90497e-08
1.08316e-07
6.62888e-08
4.84186e-08
4.39842e-08
4.74736e-08
4.29392e-08
7.1047e-08
8.95306e-08
5.60855e-08
5.59597e-08
4.43702e-08
3.55335e-08
4.78002e-08
3.9837e-08
3.21614e-08
2.0953e-08
1.45629e-08
2.39934e-09
-1.62508e-08
6.80028e-09
2.22536e-08
3.37205e-08
7.11801e-08
6.38557e-08
4.78809e-08
3.72641e-08
-1.16105e-08
-1.00657e-07
-1.8211e-07
-1.99312e-07
-1.7159e-07
-1.35723e-07
-9.22121e-08
-5.43238e-08
-5.70621e-08
-6.60411e-09
3.76857e-08
2.31227e-08
1.74731e-08
2.16749e-08
3.90533e-08
3.61716e-08
5.12507e-09
1.88226e-08
3.25854e-08
-2.82693e-08
2.63942e-08
1.08845e-07
6.0966e-08
1.14942e-07
1.80817e-07
1.30964e-07
1.04385e-07
9.77196e-08
1.04043e-07
8.53128e-08
1.22172e-07
1.54146e-07
1.08405e-07
1.12379e-07
9.12039e-08
7.3836e-08
8.89316e-08
7.32364e-08
5.50074e-08
3.26159e-08
1.90902e-08
-8.28176e-10
-2.64695e-08
7.55139e-09
3.16104e-08
5.85979e-08
1.20208e-07
1.13636e-07
1.00186e-07
8.5608e-08
5.39777e-09
-1.33989e-07
-2.61796e-07
-3.01257e-07
-2.65673e-07
-2.12498e-07
-1.48281e-07
-9.16084e-08
-9.29171e-08
-1.85743e-08
4.35427e-08
2.21359e-08
1.50803e-08
1.93187e-08
4.68414e-08
4.47181e-08
-2.2725e-08
-2.51672e-08
5.21278e-09
-7.62483e-08
-4.05823e-08
6.8588e-08
1.5159e-08
8.47973e-08
2.26283e-07
2.15866e-07
1.98975e-07
1.98544e-07
2.1038e-07
1.67497e-07
1.9504e-07
2.49846e-07
1.97377e-07
2.12341e-07
1.90926e-07
1.63535e-07
1.76199e-07
1.47068e-07
1.03257e-07
5.57626e-08
2.7959e-08
-6.92121e-09
-4.74625e-08
-5.11103e-09
2.17885e-08
7.06685e-08
1.71075e-07
1.71252e-07
1.79912e-07
1.98834e-07
1.18496e-07
-7.17858e-08
-2.67777e-07
-3.83449e-07
-3.86449e-07
-3.29563e-07
-2.40342e-07
-1.57807e-07
-1.53917e-07
-5.30784e-08
3.17393e-08
-1.87786e-10
-1.12371e-08
-9.32741e-09
2.86208e-08
3.75682e-08
-6.77561e-08
-1.06278e-07
-7.02385e-08
-1.42851e-07
-1.50481e-07
-6.90855e-08
-1.35971e-07
-1.03938e-07
8.76712e-08
1.83262e-07
2.4397e-07
2.88042e-07
3.14885e-07
2.58161e-07
2.53186e-07
3.29905e-07
2.8204e-07
3.08422e-07
3.10459e-07
3.03873e-07
3.37356e-07
3.09419e-07
2.23149e-07
1.22673e-07
6.03691e-08
-5.60989e-09
-8.13035e-08
-4.32871e-08
-3.06034e-08
2.80814e-08
1.87872e-07
1.94988e-07
2.20389e-07
3.26233e-07
3.67799e-07
2.06841e-07
-4.8994e-08
-2.63892e-07
-4.04824e-07
-4.34927e-07
-3.55128e-07
-2.49337e-07
-2.35473e-07
-1.17102e-07
-3.90795e-09
-4.7593e-08
-7.64358e-08
-7.34919e-08
-3.44505e-08
-5.90413e-09
-1.17514e-07
-1.84245e-07
-1.46786e-07
-1.98975e-07
-2.42111e-07
-2.11131e-07
-3.1541e-07
-3.50234e-07
-2.16857e-07
-5.35394e-08
1.34941e-07
2.83286e-07
3.50923e-07
3.08502e-07
2.65069e-07
3.47669e-07
3.18108e-07
3.45609e-07
3.69436e-07
4.22206e-07
5.49702e-07
6.04076e-07
5.04373e-07
3.18454e-07
1.74907e-07
4.44205e-08
-9.93733e-08
-1.0383e-07
-1.40232e-07
-1.04161e-07
1.52094e-07
1.90354e-07
1.85351e-07
3.54543e-07
6.10059e-07
7.21536e-07
4.30752e-07
2.51381e-08
-2.48053e-07
-4.51678e-07
-4.85259e-07
-3.85556e-07
-3.67963e-07
-2.2983e-07
-6.50901e-08
-1.01228e-07
-1.75285e-07
-1.69202e-07
-1.24065e-07
-7.33736e-08
-1.56758e-07
-2.30789e-07
-1.50025e-07
-1.56773e-07
-2.49363e-07
-2.36726e-07
-3.65826e-07
-4.85027e-07
-4.90713e-07
-3.61612e-07
-9.11485e-08
1.60138e-07
2.90903e-07
2.85378e-07
2.17691e-07
2.78931e-07
2.65995e-07
2.78421e-07
2.8e-07
3.60582e-07
6.19002e-07
8.79542e-07
9.16722e-07
6.95906e-07
4.3466e-07
2.10712e-07
-9.77102e-10
-7.80471e-08
-2.14955e-07
-3.08969e-07
5.88902e-09
1.4379e-07
1.27651e-07
2.76645e-07
6.63774e-07
1.22501e-06
1.16566e-06
5.09294e-07
-5.62436e-08
-4.04131e-07
-5.35075e-07
-4.95203e-07
-5.03036e-07
-3.77966e-07
-1.6382e-07
-1.4911e-07
-2.73828e-07
-2.90719e-07
-2.36775e-07
-1.36406e-07
-1.59817e-07
-2.21215e-07
-8.2601e-08
3.69937e-08
-3.4172e-08
-1.02704e-07
-1.17044e-07
-1.14321e-07
-2.90278e-07
-5.34034e-07
-3.00698e-07
-9.15239e-09
1.71768e-07
2.18423e-07
1.70874e-07
2.05516e-07
1.79752e-07
1.71562e-07
1.14851e-07
1.18666e-07
3.50614e-07
7.30433e-07
1.05429e-06
1.06439e-06
7.66129e-07
4.59363e-07
2.21963e-07
1.26031e-07
-7.37229e-08
-3.5223e-07
-1.35506e-07
6.39255e-08
6.56544e-08
2.0217e-07
5.82206e-07
1.42961e-06
1.74783e-06
9.85125e-07
2.44107e-07
-3.41069e-07
-6.45391e-07
-5.64093e-07
-4.77977e-07
-3.77898e-07
-1.6935e-07
-9.00875e-08
-2.67585e-07
-3.87844e-07
-3.91065e-07
-2.06685e-07
-9.97102e-08
-1.09069e-07
1.55546e-08
2.15495e-07
4.30107e-07
4.4444e-07
3.76495e-07
3.86596e-07
4.69581e-07
1.25162e-08
-2.63205e-07
-1.62255e-07
-2.24872e-09
1.19234e-07
1.7476e-07
2.79578e-07
2.00633e-07
1.84616e-07
8.38266e-08
-4.9678e-08
3.07443e-08
2.73689e-07
5.88513e-07
9.14361e-07
8.50005e-07
6.40172e-07
4.13008e-07
3.58793e-07
2.42865e-07
-7.67329e-08
-4.5866e-08
1.52447e-07
9.97381e-08
2.1469e-07
5.26375e-07
1.25098e-06
1.73649e-06
1.00352e-06
3.14932e-07
-9.17937e-09
-4.72447e-07
-7.46622e-07
-4.50465e-07
-1.57442e-07
1.04761e-07
2.05783e-07
7.64425e-08
-2.35461e-07
-4.53957e-07
-2.80624e-07
2.06558e-07
2.63362e-07
2.38553e-07
2.44503e-07
7.63074e-07
1.45539e-06
1.67221e-06
1.33711e-06
1.00957e-06
4.2601e-07
4.07991e-07
-3.38681e-08
-2.65029e-07
-4.0768e-08
2.01181e-07
6.5594e-07
5.90729e-07
8.4075e-07
1.27692e-06
1.12413e-07
-5.89897e-07
-3.49008e-08
1.01278e-07
3.87795e-07
5.36201e-07
6.02091e-07
4.71936e-07
4.24741e-07
4.37778e-07
2.86064e-07
2.44731e-07
5.53465e-07
6.25739e-07
7.69674e-07
8.75116e-07
1.18074e-06
1.37307e-06
6.52111e-07
9.21409e-09
1.78577e-07
7.74656e-08
-5.079e-07
-3.95041e-07
1.67733e-08
5.71393e-07
7.05447e-07
6.79788e-07
3.31552e-07
-1.0244e-07
-1.24489e-07
9.34544e-07
1.3281e-06
1.098e-06
3.51169e-07
6.19903e-07
2.03592e-06
2.9472e-06
2.84314e-06
2.60696e-06
9.91018e-07
7.80007e-07
1.11675e-06
-8.83521e-08
-8.04332e-08
2.80001e-07
1.38442e-06
1.56136e-06
1.885e-06
2.36472e-06
9.34255e-07
-6.24051e-07
1.97635e-07
-7.63522e-08
-3.56327e-07
-2.80293e-08
4.47831e-07
4.9862e-07
3.49452e-07
4.13106e-07
3.98879e-07
3.86507e-07
7.8158e-07
1.42852e-06
2.22815e-06
2.61584e-06
2.051e-06
1.57065e-06
4.62224e-07
-1.9417e-07
4.53838e-08
5.20381e-07
-3.16985e-08
-1.50768e-07
4.01669e-08
5.04174e-07
9.33782e-07
1.28357e-06
1.19399e-06
7.35586e-07
4.89686e-07
1.70451e-06
2.11439e-06
4.66477e-06
2.1529e-06
2.23108e-07
1.23464e-06
2.87178e-06
3.44476e-06
4.46107e-06
3.74811e-06
8.49643e-07
2.40988e-06
7.12265e-07
3.25482e-07
3.41089e-07
2.34469e-06
2.97252e-06
2.67148e-06
2.48939e-06
1.30801e-06
2.31492e-07
1.30985e-06
1.38712e-06
1.74593e-07
7.01841e-08
5.73816e-07
8.00235e-07
2.88936e-07
2.80823e-07
3.99811e-07
2.18242e-07
6.56803e-07
1.70771e-06
3.17013e-06
4.59857e-06
3.33031e-06
2.54702e-06
9.65061e-07
-1.94407e-07
-9.7714e-08
4.70714e-07
4.03821e-07
5.81613e-08
-1.62273e-07
5.94881e-07
6.09046e-07
1.14691e-06
1.77375e-06
1.86677e-06
1.59147e-06
2.69278e-06
2.50057e-06
2.701e-06
6.83494e-06
2.55973e-06
4.28028e-07
1.27441e-06
2.38942e-06
4.59386e-06
7.38383e-06
1.92383e-06
2.23997e-06
1.26756e-06
1.21533e-06
3.23182e-07
2.97188e-06
4.20101e-06
3.42419e-06
2.68186e-06
1.81052e-06
1.1325e-06
1.11041e-06
1.33748e-06
8.05141e-07
9.09745e-07
1.1733e-06
9.22394e-07
2.18725e-07
8.12003e-08
1.03322e-06
-4.19853e-08
4.69341e-07
1.70919e-06
3.07323e-06
4.78701e-06
4.74787e-06
2.45436e-06
1.21743e-06
6.39798e-08
2.71236e-07
6.84326e-07
4.01775e-07
5.7419e-07
-3.41172e-07
1.90572e-06
1.52498e-06
1.20925e-06
1.67695e-06
2.2752e-06
2.5274e-06
3.09451e-06
2.81754e-06
1.44044e-06
1.5036e-07
4.12781e-07
-1.88608e-06
-6.16117e-07
5.71189e-07
2.44946e-06
7.74158e-06
2.97533e-06
8.43859e-07
1.0618e-06
1.81349e-06
1.59979e-06
2.46803e-06
4.19651e-06
3.42852e-06
2.54811e-06
1.76175e-06
8.70993e-07
8.71319e-08
-6.22042e-08
4.14886e-07
4.53306e-07
6.68679e-07
-2.13355e-07
2.2272e-07
-1.99228e-07
1.15253e-06
1.03491e-07
2.53971e-07
1.50513e-06
2.45363e-06
3.33725e-06
3.97683e-06
2.92214e-06
1.36933e-06
1.71639e-07
1.2679e-06
4.82783e-06
3.08016e-06
1.66077e-06
-3.89732e-07
1.73595e-06
2.00619e-06
1.40836e-06
1.93626e-06
1.9811e-06
2.35817e-06
2.67977e-06
2.63297e-06
6.16751e-07
-2.69066e-06
-1.53471e-06
-1.32343e-06
-2.83181e-06
-1.99422e-06
-4.76144e-08
4.39769e-06
3.76922e-07
-3.36479e-07
7.51311e-07
6.52994e-07
4.28728e-06
2.0785e-06
2.21985e-06
1.80715e-06
1.99105e-06
1.87983e-06
4.78048e-07
-2.30873e-07
-2.23757e-06
-1.16066e-06
-5.99877e-07
-4.78848e-08
-4.17806e-07
8.66201e-07
-2.90155e-07
-6.91552e-08
-8.47444e-07
-2.39676e-07
4.71508e-07
1.10556e-06
2.04882e-06
1.57069e-06
1.29721e-06
2.02835e-06
9.32518e-07
2.68772e-06
1.41942e-05
1.69448e-05
3.46393e-06
-2.74792e-06
-5.05855e-07
1.69275e-07
-9.39022e-07
-7.0083e-07
1.68026e-06
1.63318e-06
4.42867e-06
3.77534e-06
1.32854e-08
-3.75569e-06
-4.20915e-06
-9.05044e-07
-1.11758e-06
-3.52252e-08
-3.8946e-07
1.7172e-06
9.81835e-08
-4.57781e-07
1.6724e-06
-3.80457e-07
2.50409e-06
2.11458e-06
-3.94966e-07
-4.42568e-07
2.45836e-06
4.76904e-06
2.41425e-06
-2.48102e-06
-4.14234e-06
-2.10844e-06
6.30345e-08
2.48641e-07
4.46662e-07
1.69889e-06
2.29141e-07
-1.01232e-06
-2.80197e-06
-1.71233e-06
-9.31594e-07
8.80114e-07
3.60303e-06
2.13415e-07
-2.08695e-06
1.49382e-06
2.79499e-07
1.94331e-06
2.40011e-05
2.72665e-05
1.5785e-06
-8.59641e-06
-6.70508e-06
-3.56108e-06
-3.48562e-06
-4.0421e-06
-3.37635e-07
1.24589e-06
2.27784e-06
2.95001e-06
-9.1712e-08
-3.32133e-06
-4.49985e-06
-3.65771e-07
7.235e-07
-2.58929e-06
-1.43348e-06
6.58193e-07
1.47699e-06
5.42773e-10
5.00724e-07
-9.2768e-07
1.39233e-07
9.67182e-07
-2.80571e-06
-2.85409e-06
4.94537e-06
9.0967e-06
9.06237e-06
5.10057e-06
7.14886e-06
1.22986e-06
5.16247e-07
-1.54641e-06
2.26491e-06
1.95909e-06
8.70857e-07
-3.36212e-06
-5.03744e-06
-3.02202e-06
-2.557e-06
1.01106e-06
7.75003e-06
1.59592e-06
-3.42127e-06
9.59043e-07
-1.31875e-06
8.65347e-07
1.68052e-05
9.08483e-06
-1.68985e-06
-8.32925e-06
-5.9749e-06
-3.00693e-06
-2.76897e-06
-2.31325e-06
-1.16827e-06
-1.17485e-06
-5.24833e-06
3.28571e-06
7.15417e-07
-2.37853e-06
-3.90496e-06
-8.2107e-07
2.38307e-06
-8.90633e-07
1.77012e-06
9.07183e-07
1.65317e-06
2.71394e-08
-8.03546e-07
-8.42034e-07
-8.77373e-07
5.16048e-07
-1.01683e-06
-1.07426e-06
2.03135e-06
5.91717e-06
9.0251e-06
1.76591e-05
1.18218e-05
7.62995e-07
-2.08684e-06
-1.19545e-06
3.09587e-06
-7.44463e-07
-2.44406e-06
-1.08373e-05
-1.19041e-05
-5.44143e-06
-3.76286e-06
-2.36453e-06
1.06526e-05
7.81873e-06
5.58531e-06
6.49302e-06
8.61131e-08
-2.09671e-06
2.15891e-07
-9.32571e-07
-1.68885e-06
-3.07582e-06
-8.7313e-07
1.57565e-06
1.23972e-06
1.6409e-06
1.44791e-07
-4.11321e-06
-9.34233e-06
4.55063e-07
1.59903e-06
-9.06121e-07
-5.13302e-06
-2.02232e-06
2.58004e-06
7.30363e-06
1.51732e-05
7.83743e-06
3.57979e-06
9.4201e-07
9.27682e-07
2.05248e-06
-4.097e-08
-1.01999e-06
3.05911e-07
6.46692e-08
2.55488e-07
7.00222e-07
2.57795e-06
9.10455e-06
8.44339e-06
-1.99903e-06
-3.40291e-06
-1.47306e-06
2.0554e-06
-4.01827e-06
-4.19273e-06
-8.64615e-06