/*--------------------------------*- C++ -*----------------------------------*\
| =========                 |                                                 |
| \\      /  F ield         | OpenFOAM: The Open Source CFD Toolbox           |
|  \\    /   O peration     | Version:  2.3.0                                 |
|   \\  /    A nd           | Web:      www.OpenFOAM.org                      |
|    \\/     M anipulation  |                                                 |
\*---------------------------------------------------------------------------*/
FoamFile
{
    version     2.0;
    format      ascii;
    class       volScalarField;
    location    "100";
    object      p;
}
// * * * * * * * * * * * * * * * * * * * * * * * * * * * * * * * * * * * * * //

dimensions      [0 2 -2 0 0 0 0];

internalField   nonuniform List<scalar> 
90000
(
4.57228e-05
3.99512e-05
2.98075e-05
1.54785e-05
1.00168e-05
3.25373e-05
5.55824e-05
5.74893e-05
6.95471e-05
8.4544e-05
8.99944e-05
8.51104e-05
6.99983e-05
5.41672e-05
4.07335e-05
5.31517e-05
5.88546e-05
5.06215e-05
5.55781e-05
5.8933e-05
5.67684e-05
4.72485e-05
4.29545e-05
4.32514e-05
4.41222e-05
5.56744e-05
5.38888e-05
4.57637e-05
4.92231e-05
4.75755e-05
5.44688e-05
5.30707e-05
3.64708e-05
2.78178e-05
3.38958e-05
6.29903e-05
7.62346e-05
6.89804e-05
6.44779e-05
5.03233e-05
3.91053e-05
5.59518e-05
5.65501e-05
4.9883e-05
6.96692e-05
9.43207e-05
9.74336e-05
8.29849e-05
6.06735e-05
4.62417e-05
4.55568e-05
3.9882e-05
2.96528e-05
1.52019e-05
9.57883e-06
3.21957e-05
5.55745e-05
5.74232e-05
6.93747e-05
8.45351e-05
8.99397e-05
8.50798e-05
7.00174e-05
5.4222e-05
4.0482e-05
5.2953e-05
5.89199e-05
5.04691e-05
5.54978e-05
5.90342e-05
5.69195e-05
4.74579e-05
4.30885e-05
4.34308e-05
4.41898e-05
5.57142e-05
5.40589e-05
4.56547e-05
4.91669e-05
4.75469e-05
5.45307e-05
5.34048e-05
3.66111e-05
2.7756e-05
3.34985e-05
6.28142e-05
7.62605e-05
6.89632e-05
6.44001e-05
5.03687e-05
3.87874e-05
5.58949e-05
5.66682e-05
4.96242e-05
6.93032e-05
9.4245e-05
9.7486e-05
8.29671e-05
6.05581e-05
4.59783e-05
4.52741e-05
3.97462e-05
2.93777e-05
1.47542e-05
9.04427e-06
3.18177e-05
5.57835e-05
5.73293e-05
6.92178e-05
8.4604e-05
8.9942e-05
8.52419e-05
7.01974e-05
5.43651e-05
4.01552e-05
5.27979e-05
5.91181e-05
5.02738e-05
5.54022e-05
5.92861e-05
5.72836e-05
4.77163e-05
4.32064e-05
4.35851e-05
4.415e-05
5.56925e-05
5.41911e-05
4.53434e-05
4.90239e-05
4.74746e-05
5.47108e-05
5.38579e-05
3.67793e-05
2.76068e-05
3.28556e-05
6.24901e-05
7.63535e-05
6.89574e-05
6.39913e-05
5.06171e-05
3.83943e-05
5.5947e-05
5.69737e-05
4.93965e-05
6.88849e-05
9.42594e-05
9.76652e-05
8.29536e-05
6.0321e-05
4.56298e-05
4.50116e-05
3.97058e-05
2.89698e-05
1.40315e-05
8.46314e-06
3.14442e-05
5.58078e-05
5.71225e-05
6.89595e-05
8.47513e-05
8.98689e-05
8.55219e-05
7.03912e-05
5.45096e-05
3.98421e-05
5.27704e-05
5.94482e-05
5.00727e-05
5.53745e-05
5.98219e-05
5.77349e-05
4.80371e-05
4.32935e-05
4.36874e-05
4.39904e-05
5.55875e-05
5.41823e-05
4.47902e-05
4.88305e-05
4.7485e-05
5.50906e-05
5.43944e-05
3.6901e-05
2.73811e-05
3.19824e-05
6.20778e-05
7.66019e-05
6.89772e-05
6.36566e-05
5.00154e-05
3.7886e-05
5.60398e-05
5.74279e-05
4.92347e-05
6.85325e-05
9.44421e-05
9.80384e-05
8.30038e-05
5.99543e-05
4.51889e-05
4.49287e-05
4.00228e-05
2.88295e-05
1.3218e-05
7.855e-06
3.09389e-05
5.53837e-05
5.68153e-05
6.85766e-05
8.46934e-05
8.99287e-05
8.50607e-05
7.02374e-05
5.43545e-05
3.95419e-05
5.28175e-05
5.98031e-05
4.99622e-05
5.54515e-05
6.05696e-05
5.84347e-05
4.84476e-05
4.32324e-05
4.3924e-05
4.38833e-05
5.55039e-05
5.39742e-05
4.39076e-05
4.84793e-05
4.74943e-05
5.57639e-05
5.51431e-05
3.69699e-05
2.70054e-05
3.07758e-05
6.15104e-05
7.70455e-05
6.92327e-05
6.356e-05
4.97361e-05
3.75403e-05
5.57139e-05
5.7799e-05
4.92014e-05
6.82968e-05
9.47228e-05
9.85648e-05
8.33402e-05
5.96431e-05
4.46243e-05
4.50322e-05
4.09008e-05
2.92996e-05
1.28627e-05
7.61842e-06
3.02184e-05
5.41575e-05
5.60954e-05
6.8081e-05
8.43939e-05
9.00879e-05
8.49376e-05
6.98118e-05
5.38536e-05
3.9234e-05
5.25533e-05
5.95754e-05
4.97223e-05
5.54977e-05
6.15078e-05
5.93867e-05
4.90428e-05
4.30719e-05
4.41893e-05
4.38792e-05
5.58686e-05
5.38551e-05
4.29623e-05
4.79458e-05
4.75148e-05
5.67288e-05
5.6162e-05
3.72745e-05
2.66892e-05
2.91825e-05
6.03467e-05
7.71894e-05
6.94534e-05
6.36265e-05
4.98372e-05
3.7521e-05
5.55026e-05
5.78198e-05
4.91824e-05
6.83099e-05
9.47999e-05
9.8804e-05
8.37688e-05
5.96692e-05
4.40078e-05
4.51541e-05
4.22447e-05
3.03775e-05
1.34153e-05
8.25465e-06
2.96174e-05
5.30001e-05
5.45638e-05
6.68237e-05
8.37468e-05
9.01376e-05
8.50353e-05
6.96167e-05
5.34331e-05
3.9033e-05
5.19618e-05
5.88015e-05
4.92299e-05
5.50059e-05
6.20764e-05
6.06332e-05
4.9053e-05
4.26748e-05
4.42278e-05
4.41159e-05
5.60219e-05
5.4028e-05
4.23717e-05
4.80315e-05
4.79444e-05
5.74604e-05
5.70685e-05
3.77507e-05
2.65375e-05
2.83873e-05
5.81359e-05
7.64119e-05
6.90278e-05
6.33012e-05
4.96951e-05
3.73003e-05
5.55685e-05
5.79119e-05
4.98312e-05
6.85712e-05
9.50389e-05
9.86643e-05
8.39216e-05
5.97769e-05
4.3205e-05
4.47644e-05
4.39806e-05
3.20438e-05
1.45776e-05
9.71016e-06
2.94944e-05
5.12675e-05
5.18631e-05
6.47872e-05
8.23079e-05
8.97482e-05
8.45528e-05
6.95384e-05
5.36945e-05
3.93249e-05
5.11984e-05
5.75815e-05
4.83834e-05
5.42778e-05
6.24168e-05
6.10249e-05
4.84981e-05
4.13171e-05
4.383e-05
4.44086e-05
5.61723e-05
5.43719e-05
4.15358e-05
4.83787e-05
4.9511e-05
5.92395e-05
5.84212e-05
3.80187e-05
2.58741e-05
2.72773e-05
5.67117e-05
7.44482e-05
6.78676e-05
6.26369e-05
4.95223e-05
3.66443e-05
5.51562e-05
5.75507e-05
4.92415e-05
6.85828e-05
9.49106e-05
9.84623e-05
8.42606e-05
5.96405e-05
4.19171e-05
4.43708e-05
4.64646e-05
3.46973e-05
1.67926e-05
1.14237e-05
2.97473e-05
5.09716e-05
4.80022e-05
6.11526e-05
8.00456e-05
8.93199e-05
8.32071e-05
6.89943e-05
5.45234e-05
4.00965e-05
5.04714e-05
5.65847e-05
4.74733e-05
5.31606e-05
6.24117e-05
6.14135e-05
4.74656e-05
3.94429e-05
4.2877e-05
4.42967e-05
5.56168e-05
5.48798e-05
4.12303e-05
4.83194e-05
5.12782e-05
6.21007e-05
6.06794e-05
3.98247e-05
2.50385e-05
2.43594e-05
5.44136e-05
7.11717e-05
6.56016e-05
6.10887e-05
4.96203e-05
3.67854e-05
5.46567e-05
5.64433e-05
4.74652e-05
6.78792e-05
9.44272e-05
9.70277e-05
8.34344e-05
5.95665e-05
4.17864e-05
4.52346e-05
4.96738e-05
3.78825e-05
2.0083e-05
1.51065e-05
3.02592e-05
5.01854e-05
4.36151e-05
5.60761e-05
7.71861e-05
8.78543e-05
8.18058e-05
6.7912e-05
5.56275e-05
4.12667e-05
4.98944e-05
5.57217e-05
4.65207e-05
5.11899e-05
6.16778e-05
6.04001e-05
4.6152e-05
3.66592e-05
4.08649e-05
4.44637e-05
5.45207e-05
5.47181e-05
4.2661e-05
4.87465e-05
5.30353e-05
6.38459e-05
6.21867e-05
4.2518e-05
2.53458e-05
2.05225e-05
5.07679e-05
6.65303e-05
6.26357e-05
5.89857e-05
4.88469e-05
3.65149e-05
5.53208e-05
5.55467e-05
4.53342e-05
6.59605e-05
9.37724e-05
9.52571e-05
8.16912e-05
5.82772e-05
4.09383e-05
4.46146e-05
5.19164e-05
4.00432e-05
2.42457e-05
1.82139e-05
3.1116e-05
5.05665e-05
3.9698e-05
5.11042e-05
7.31004e-05
8.39094e-05
8.04508e-05
6.72686e-05
5.71545e-05
4.31219e-05
4.93308e-05
5.48557e-05
4.56125e-05
4.89084e-05
5.85802e-05
5.91439e-05
4.51775e-05
3.43507e-05
3.84694e-05
4.38538e-05
5.30144e-05
5.42073e-05
4.38503e-05
4.96093e-05
5.47308e-05
6.17665e-05
6.23944e-05
4.49709e-05
2.58264e-05
1.58082e-05
4.66513e-05
5.86714e-05
5.73786e-05
5.6681e-05
4.69186e-05
3.68341e-05
5.4091e-05
5.56056e-05
4.53852e-05
6.38636e-05
9.24602e-05
9.33794e-05
7.88368e-05
5.82546e-05
3.98709e-05
4.34299e-05
5.29022e-05
3.99329e-05
2.40261e-05
1.90056e-05
3.19813e-05
5.14926e-05
4.11701e-05
4.71378e-05
6.71037e-05
7.87171e-05
7.80486e-05
6.71394e-05
5.92307e-05
4.55263e-05
4.84752e-05
5.37296e-05
4.53134e-05
4.64265e-05
5.54621e-05
5.92796e-05
4.46536e-05
3.4169e-05
3.79839e-05
4.30407e-05
5.09536e-05
5.33706e-05
4.37273e-05
5.02467e-05
5.61229e-05
6.19433e-05
6.17117e-05
4.58328e-05
2.62385e-05
1.24641e-05
4.32968e-05
5.53461e-05
5.42181e-05
5.22328e-05
4.59827e-05
3.89818e-05
5.13887e-05
5.49272e-05
4.67139e-05
6.45008e-05
9.14561e-05
9.24342e-05
7.56e-05
5.75206e-05
3.9582e-05
4.64608e-05
5.38753e-05
3.75679e-05
1.92115e-05
1.59038e-05
2.80733e-05
5.28329e-05
4.39884e-05
4.64186e-05
6.2651e-05
7.26019e-05
7.42295e-05
6.71001e-05
6.15636e-05
4.73524e-05
4.67095e-05
5.17996e-05
4.37266e-05
4.44335e-05
5.22777e-05
5.47556e-05
4.57968e-05
3.56962e-05
4.05102e-05
4.44139e-05
4.86419e-05
5.29859e-05
4.2948e-05
5.01373e-05
5.7315e-05
6.09223e-05
6.05047e-05
4.51798e-05
2.65175e-05
1.68516e-05
4.2096e-05
5.32161e-05
5.27373e-05
4.84245e-05
4.51011e-05
4.13996e-05
4.85505e-05
5.39663e-05
4.71804e-05
6.6655e-05
9.2002e-05
9.38888e-05
7.3951e-05
5.74218e-05
4.11763e-05
5.24112e-05
5.57973e-05
3.47801e-05
1.14741e-05
1.01547e-05
2.61075e-05
5.20187e-05
4.40162e-05
4.62366e-05
5.6731e-05
6.5414e-05
6.81889e-05
6.56942e-05
6.24032e-05
4.79137e-05
4.40138e-05
4.94183e-05
4.35548e-05
4.33834e-05
4.95039e-05
5.2883e-05
4.2425e-05
3.51245e-05
4.46318e-05
4.65208e-05
5.83166e-05
5.14533e-05
4.11166e-05
4.96865e-05
5.88713e-05
5.97862e-05
5.69405e-05
4.23991e-05
2.61261e-05
1.72972e-05
4.18544e-05
5.15964e-05
5.15988e-05
4.5778e-05
4.40413e-05
4.22805e-05
4.41348e-05
5.23273e-05
5.50613e-05
6.63911e-05
9.41824e-05
9.97324e-05
7.59254e-05
6.05914e-05
4.4761e-05
5.62945e-05
5.73015e-05
3.2848e-05
4.0727e-06
3.70824e-06
2.43291e-05
5.01705e-05
4.18473e-05
4.46862e-05
5.3048e-05
5.64336e-05
6.10759e-05
6.24405e-05
6.18556e-05
4.81554e-05
4.17504e-05
4.78184e-05
4.45056e-05
4.27308e-05
4.70012e-05
4.79026e-05
3.72827e-05
3.14005e-05
4.77957e-05
4.42071e-05
5.16903e-05
4.37493e-05
3.34718e-05
4.69839e-05
5.91438e-05
5.95876e-05
5.1621e-05
3.67539e-05
2.45576e-05
2.21934e-05
4.04314e-05
4.89913e-05
4.86195e-05
3.99356e-05
4.08557e-05
3.98934e-05
3.96275e-05
4.89692e-05
4.36403e-05
5.5281e-05
9.30892e-05
0.00011011
8.81502e-05
6.72047e-05
4.90388e-05
5.65961e-05
5.65996e-05
3.12938e-05
-5.95986e-07
-2.32938e-06
2.08264e-05
4.92108e-05
4.24323e-05
4.4859e-05
5.09661e-05
4.50928e-05
4.93143e-05
5.6296e-05
5.88047e-05
4.96585e-05
4.1063e-05
4.81809e-05
4.65947e-05
4.24164e-05
4.43398e-05
4.18852e-05
3.18321e-05
2.74678e-05
3.05018e-05
3.45404e-05
4.08959e-05
3.24807e-05
2.24104e-05
4.14182e-05
5.50238e-05
5.75073e-05
4.81476e-05
3.5398e-05
2.28864e-05
2.29543e-05
3.44711e-05
4.37676e-05
4.526e-05
3.39683e-05
3.64516e-05
3.67662e-05
3.67897e-05
4.60527e-05
2.46913e-05
2.75037e-05
8.05564e-05
0.000115989
9.71575e-05
7.27744e-05
5.22059e-05
5.54258e-05
5.37842e-05
2.75212e-05
-4.79292e-06
-4.90729e-06
1.52333e-05
4.90764e-05
4.6108e-05
4.84212e-05
4.864e-05
3.40064e-05
3.99065e-05
5.37779e-05
5.67797e-05
5.11904e-05
3.97097e-05
4.74456e-05
4.86411e-05
4.36437e-05
4.15629e-05
4.33013e-05
3.02342e-05
2.82129e-05
1.84376e-05
2.56737e-05
3.32394e-05
2.64836e-05
1.78105e-05
4.04419e-05
4.99811e-05
5.38649e-05
4.75123e-05
3.86778e-05
2.52015e-05
2.01087e-05
2.4733e-05
3.61718e-05
4.2579e-05
3.02869e-05
3.2717e-05
3.66181e-05
3.25031e-05
4.4964e-05
5.53812e-06
1.50761e-06
6.26209e-05
0.000108942
9.7296e-05
7.34413e-05
5.40906e-05
5.6285e-05
5.34615e-05
2.16757e-05
-1.67219e-05
-1.4681e-05
1.35254e-05
4.85845e-05
5.25536e-05
5.33736e-05
4.45811e-05
2.81204e-05
4.23946e-05
6.33684e-05
5.87952e-05
5.47817e-05
4.25808e-05
4.63799e-05
4.71439e-05
4.32613e-05
4.06216e-05
4.06184e-05
3.08161e-05
2.87267e-05
2.63132e-05
2.32253e-05
3.61843e-05
3.14496e-05
1.92572e-05
3.87723e-05
4.75714e-05
5.40403e-05
5.00209e-05
4.24202e-05
2.90466e-05
1.78978e-05
1.65033e-05
2.78079e-05
3.95382e-05
2.7372e-05
3.04401e-05
3.94024e-05
3.36158e-05
4.51771e-05
8.86487e-06
-6.8503e-07
5.20263e-05
9.93451e-05
9.14071e-05
6.98792e-05
5.7206e-05
5.63572e-05
5.1112e-05
9.97995e-06
-3.88485e-05
-2.8701e-05
5.05546e-06
4.95066e-05
5.72753e-05
5.33381e-05
3.97318e-05
2.80652e-05
5.14198e-05
6.84186e-05
5.80342e-05
5.09363e-05
4.40101e-05
4.54392e-05
4.1779e-05
3.7479e-05
4.13425e-05
4.51061e-05
3.58536e-05
2.78501e-05
2.31215e-05
2.67852e-05
4.27369e-05
4.16423e-05
2.42079e-05
3.87383e-05
4.80992e-05
5.78964e-05
5.78721e-05
4.96476e-05
3.7319e-05
1.96738e-05
1.27709e-05
2.03086e-05
3.50165e-05
3.02748e-05
3.14315e-05
4.0122e-05
3.96316e-05
4.43364e-05
2.50993e-05
1.61012e-05
5.33046e-05
8.88497e-05
8.31738e-05
6.45838e-05
4.2349e-05
5.34322e-05
5.00328e-05
8.42238e-06
-2.79485e-05
-2.03564e-05
1.25902e-05
5.21516e-05
5.88358e-05
5.603e-05
4.66438e-05
3.65688e-05
5.72857e-05
7.27452e-05
6.22636e-05
5.07407e-05
4.7131e-05
4.54893e-05
3.37026e-05
2.62114e-05
3.88042e-05
4.71678e-05
3.74022e-05
2.72285e-05
2.29593e-05
3.24839e-05
4.70834e-05
4.92653e-05
3.81192e-05
3.85554e-05
4.71243e-05
6.31184e-05
6.96885e-05
7.14889e-05
5.39325e-05
2.52982e-05
1.40288e-05
1.79336e-05
3.68918e-05
4.14886e-05
3.59726e-05
3.6407e-05
3.75898e-05
4.29502e-05
3.93515e-05
3.72335e-05
6.09367e-05
7.84002e-05
6.88024e-05
5.40568e-05
4.62799e-05
5.5636e-05
4.99085e-05
9.66719e-06
-2.19913e-05
-1.6492e-05
1.52753e-05
5.52485e-05
6.29002e-05
6.11819e-05
5.21719e-05
3.40705e-05
4.95527e-05
6.81235e-05
6.33234e-05
5.40542e-05
4.88519e-05
4.53269e-05
3.10569e-05
2.43256e-05
4.61536e-05
5.30693e-05
3.82223e-05
2.57524e-05
2.5614e-05
3.47407e-05
5.30978e-05
5.64287e-05
3.82395e-05
3.09824e-05
4.52985e-05
6.98546e-05
8.82262e-05
7.66429e-05
6.32073e-05
3.11399e-05
1.23178e-05
1.2333e-05
4.01845e-05
5.63537e-05
4.57668e-05
3.18447e-05
2.9189e-05
3.69769e-05
4.42088e-05
4.66574e-05
6.94519e-05
7.92053e-05
6.30951e-05
4.4422e-05
4.24552e-05
5.67729e-05
5.39513e-05
1.67211e-05
-1.10616e-05
-1.24977e-06
1.78947e-05
4.93476e-05
5.43014e-05
4.1903e-05
5.33677e-05
3.62243e-05
4.14451e-05
5.78982e-05
5.48761e-05
5.30758e-05
4.48989e-05
4.16801e-05
4.00404e-05
4.24157e-05
5.3827e-05
5.09378e-05
3.04078e-05
1.93721e-05
3.07975e-05
3.98704e-05
5.35241e-05
5.24216e-05
3.63434e-05
2.69864e-05
3.56372e-05
7.0595e-05
0.000106974
0.000117554
8.55232e-05
4.15222e-05
6.18303e-06
-3.99691e-06
1.53516e-05
3.72408e-05
3.67527e-05
3.19716e-05
2.57825e-05
3.09278e-05
4.19624e-05
4.78342e-05
6.87799e-05
7.86235e-05
6.16e-05
4.10596e-05
4.19581e-05
6.02725e-05
6.61278e-05
3.59724e-05
2.03306e-06
1.35302e-05
2.60769e-05
5.00646e-05
5.29684e-05
2.46763e-05
5.3132e-05
4.39903e-05
4.54424e-05
6.28149e-05
6.67441e-05
6.84074e-05
5.85404e-05
4.17525e-05
3.29262e-05
3.67496e-05
5.46821e-05
6.12894e-05
3.24835e-05
1.90785e-05
2.1465e-05
3.00293e-05
4.47731e-05
5.80912e-05
4.48733e-05
3.1774e-05
2.4451e-05
4.71844e-05
9.65432e-05
0.000124116
9.41255e-05
4.2815e-05
3.50418e-06
-7.06995e-06
8.15365e-06
2.80629e-05
3.12029e-05
3.19693e-05
2.28236e-05
2.83701e-05
4.24663e-05
5.38244e-05
6.99407e-05
8.06197e-05
6.46287e-05
4.13379e-05
3.65208e-05
6.34173e-05
6.95878e-05
4.84803e-05
2.20402e-05
2.66089e-05
3.13927e-05
5.25591e-05
5.71105e-05
3.95274e-05
6.63583e-05
6.48452e-05
6.8726e-05
8.49327e-05
8.37731e-05
7.91916e-05
7.08745e-05
5.38343e-05
4.90413e-05
4.80687e-05
4.90715e-05
3.00351e-05
1.03054e-05
9.27847e-06
2.87717e-05
5.20612e-05
5.61661e-05
3.85567e-05
2.19981e-05
1.35948e-05
1.58954e-05
3.62789e-05
7.53609e-05
0.000100168
9.33371e-05
5.22265e-05
1.55112e-05
2.94614e-08
3.83075e-06
1.43641e-05
1.73875e-05
3.10294e-05
2.76258e-05
1.58795e-05
4.10434e-05
5.7789e-05
6.3199e-05
7.14323e-05
5.80236e-05
3.91823e-05
4.04045e-05
4.77392e-05
4.48521e-05
1.72967e-05
-7.5787e-06
2.93541e-05
4.99877e-05
6.69873e-05
5.49852e-05
3.48595e-05
3.91839e-05
3.64925e-05
3.49511e-05
6.49367e-05
8.12387e-05
7.16603e-05
6.554e-05
5.32393e-05
4.90808e-05
5.07512e-05
5.23664e-05
4.04695e-05
1.17831e-05
-5.91774e-06
-4.85407e-06
3.73015e-05
7.22716e-05
8.52191e-05
5.24852e-05
1.12569e-05
-8.61166e-06
3.81545e-06
5.4911e-05
0.000111424
9.84965e-05
4.79319e-05
6.03375e-06
-1.1446e-06
1.04359e-05
2.53907e-05
4.50768e-05
3.18311e-05
3.70941e-05
3.24092e-05
5.38608e-05
6.61842e-05
7.09722e-05
6.7073e-05
5.90829e-05
3.89538e-05
2.9877e-05
4.99351e-05
4.23337e-05
4.01054e-06
-3.30158e-05
-3.50409e-05
1.43753e-05
3.8974e-05
5.44433e-05
5.12716e-05
3.46666e-05
2.83661e-05
1.22412e-05
3.06561e-05
4.09531e-05
4.53799e-05
4.72023e-05
4.67133e-05
4.54999e-05
3.68547e-05
3.60152e-05
4.5977e-05
2.81543e-05
1.32785e-05
-7.87104e-06
1.28502e-05
4.4679e-05
4.91042e-05
5.84938e-05
4.78745e-05
2.32434e-05
9.56932e-06
2.79061e-05
5.63579e-05
5.48762e-05
3.47473e-05
2.58407e-05
2.21214e-05
1.08318e-05
9.67174e-06
2.84379e-06
1.30391e-05
3.46498e-05
3.70763e-05
4.24224e-05
6.60346e-05
7.72174e-05
7.66179e-05
6.52284e-05
4.26897e-05
2.60627e-05
6.59073e-05
5.64553e-05
2.04165e-05
7.33152e-06
3.25222e-05
3.32675e-05
1.74493e-05
2.32814e-05
3.67744e-05
4.88127e-05
5.0494e-05
3.5949e-05
2.55639e-05
3.10194e-05
2.93738e-05
3.06044e-05
4.41143e-05
4.74752e-05
4.41481e-05
4.00012e-05
5.3071e-05
2.9991e-05
1.3985e-05
2.25857e-05
3.56235e-05
6.94161e-05
6.15785e-05
5.91609e-05
6.62034e-05
4.88353e-05
2.24195e-05
6.34749e-06
8.67265e-06
3.37089e-05
4.86467e-05
4.70427e-05
3.20077e-05
7.41751e-06
-4.16896e-06
-2.09154e-05
3.16852e-06
3.95833e-05
4.23798e-05
2.58305e-05
2.02231e-05
4.91666e-05
7.08483e-05
6.8902e-05
5.35614e-05
6.21761e-05
6.87863e-05
7.08885e-05
3.74364e-05
3.29487e-05
5.71201e-05
5.05148e-05
1.79715e-05
9.18701e-06
2.0492e-05
2.12617e-05
2.36757e-05
2.92485e-05
2.33109e-05
3.62723e-05
4.92342e-05
5.69025e-05
5.85581e-05
3.77873e-05
4.26831e-06
-2.62209e-05
9.56632e-06
2.01534e-05
2.48439e-05
2.39482e-05
3.86767e-05
5.86869e-05
4.96885e-05
5.4964e-05
6.92511e-05
6.4649e-05
6.78764e-05
5.90493e-05
3.75628e-05
1.41293e-05
-3.01058e-06
2.89549e-05
3.23074e-05
-9.91149e-06
-4.00736e-05
-3.99304e-05
9.00969e-06
6.21732e-05
7.16246e-05
5.42087e-05
3.9605e-05
4.45424e-05
5.51753e-05
5.44782e-05
5.12428e-05
6.53631e-05
4.78178e-05
5.52367e-05
3.97919e-05
3.92363e-05
5.87933e-05
7.09196e-05
5.70088e-05
2.03887e-05
1.05184e-06
1.8834e-06
2.31394e-05
4.58288e-05
4.92753e-05
5.93544e-05
7.72677e-05
6.54336e-05
3.49718e-05
2.20179e-05
3.45623e-05
3.84985e-05
4.05108e-05
4.49589e-05
4.42029e-05
3.05479e-05
3.76687e-05
5.84021e-05
5.35909e-05
4.73269e-05
5.68354e-05
6.86338e-05
4.5867e-05
4.16669e-05
3.37163e-05
2.3172e-05
1.45958e-05
1.94919e-05
4.20324e-05
5.99678e-06
6.33338e-06
2.06953e-05
4.59246e-05
7.93475e-05
7.41748e-05
4.04891e-05
2.2815e-05
5.42731e-05
6.31221e-05
5.50144e-05
4.03803e-05
3.7895e-05
2.48558e-05
2.43598e-05
3.23641e-05
7.26213e-05
9.03765e-05
8.26834e-05
3.5006e-05
4.83309e-06
2.24253e-05
2.83094e-05
4.0402e-05
6.30382e-05
7.4885e-05
8.48086e-05
7.69418e-05
4.67693e-05
2.13232e-05
-5.02922e-06
-1.38621e-05
-2.68522e-05
-1.92397e-05
1.13124e-05
2.68061e-05
4.62638e-05
6.50676e-05
5.68207e-05
2.37179e-05
-1.65159e-05
1.78392e-05
4.25756e-05
4.04581e-05
5.30294e-05
5.51565e-05
3.82252e-05
3.88001e-05
5.86786e-05
5.13982e-05
2.0596e-06
-4.00619e-05
-2.67726e-05
1.62097e-05
4.59976e-05
3.93975e-05
-1.37241e-05
-5.29075e-06
4.01916e-05
6.43716e-05
5.32265e-05
1.60566e-05
2.67369e-05
6.33639e-05
4.94614e-05
4.52513e-05
2.94029e-05
3.41773e-05
6.96749e-05
7.35031e-05
6.12498e-05
6.81952e-05
6.91463e-05
6.31034e-05
5.6206e-05
5.60309e-05
4.09801e-05
3.65131e-05
5.89627e-05
5.98243e-05
4.8695e-05
4.48731e-05
3.61313e-05
3.21348e-05
3.43273e-05
3.85508e-05
5.02351e-05
6.60983e-05
7.82784e-05
6.58464e-05
5.74717e-05
5.20485e-05
3.42814e-05
3.91496e-05
5.11763e-05
5.37536e-05
6.36148e-05
8.65072e-05
9.55033e-05
7.91366e-05
4.49678e-05
2.91759e-05
2.20826e-05
2.5331e-05
3.9203e-05
3.0443e-05
3.44629e-05
7.43792e-05
9.84192e-05
0.000101074
9.99165e-05
9.83072e-05
8.77381e-05
6.33913e-05
4.93961e-05
4.53152e-05
2.92835e-05
3.3681e-05
6.97315e-05
7.37491e-05
6.0877e-05
6.80079e-05
6.95136e-05
6.3186e-05
5.6106e-05
5.57847e-05
4.07596e-05
3.61853e-05
5.89665e-05
5.99747e-05
4.86133e-05
4.49246e-05
3.61399e-05
3.19825e-05
3.42586e-05
3.84899e-05
5.02995e-05
6.62258e-05
7.86296e-05
6.59494e-05
5.73969e-05
5.21494e-05
3.41115e-05
3.87789e-05
5.10565e-05
5.35587e-05
6.33704e-05
8.67801e-05
9.64212e-05
7.98924e-05
4.50533e-05
2.90355e-05
2.1752e-05
2.51127e-05
3.92949e-05
3.0416e-05
3.37209e-05
7.41992e-05
9.8607e-05
0.000101044
9.98133e-05
9.82054e-05
8.7744e-05
6.35851e-05
4.94767e-05
4.54936e-05
2.92042e-05
3.32833e-05
7.00391e-05
7.40117e-05
6.05201e-05
6.77101e-05
6.97004e-05
6.33204e-05
5.57333e-05
5.53642e-05
4.04583e-05
3.58758e-05
5.91653e-05
6.02674e-05
4.85359e-05
4.50511e-05
3.61778e-05
3.18019e-05
3.41812e-05
3.84587e-05
5.04759e-05
6.6574e-05
7.92488e-05
6.60226e-05
5.72478e-05
5.23312e-05
3.37169e-05
3.83468e-05
5.09614e-05
5.33264e-05
6.31038e-05
8.75036e-05
9.77163e-05
8.05326e-05
4.45464e-05
2.86033e-05
2.08249e-05
2.47259e-05
3.95235e-05
3.02601e-05
3.26441e-05
7.40037e-05
9.90246e-05
0.000101085
9.97491e-05
9.81898e-05
8.7894e-05
6.39351e-05
4.98005e-05
4.57548e-05
2.92411e-05
3.30585e-05
7.06865e-05
7.45016e-05
6.00363e-05
6.70839e-05
6.95204e-05
6.355e-05
5.49068e-05
5.48255e-05
4.01934e-05
3.57243e-05
5.95008e-05
6.0622e-05
4.84721e-05
4.52453e-05
3.62846e-05
3.16085e-05
3.41172e-05
3.85163e-05
5.09094e-05
6.71562e-05
7.99694e-05
6.6017e-05
5.70082e-05
5.26244e-05
3.30156e-05
3.79137e-05
5.10463e-05
5.31239e-05
6.29242e-05
8.87483e-05
9.9494e-05
8.08164e-05
4.3229e-05
2.7544e-05
2.01137e-05
2.42566e-05
3.98634e-05
3.00496e-05
3.12569e-05
7.38349e-05
9.9545e-05
0.000101113
9.96982e-05
9.82329e-05
8.81284e-05
6.4228e-05
5.03319e-05
4.60953e-05
2.91008e-05
3.29109e-05
7.1418e-05
7.49364e-05
5.96107e-05
6.61107e-05
6.90555e-05
6.38045e-05
5.47782e-05
5.40927e-05
4.01463e-05
3.59706e-05
5.98174e-05
6.08013e-05
4.83387e-05
4.54929e-05
3.65754e-05
3.14187e-05
3.40551e-05
3.8914e-05
5.10365e-05
6.7931e-05
8.06024e-05
6.59011e-05
5.67211e-05
5.29262e-05
3.30764e-05
3.7539e-05
5.11945e-05
5.3123e-05
6.3232e-05
9.04734e-05
0.000102149
8.09528e-05
4.09358e-05
2.57129e-05
1.90908e-05
2.39407e-05
4.06789e-05
2.96757e-05
2.98074e-05
7.37927e-05
0.000100189
0.000101055
9.95645e-05
9.81739e-05
8.83744e-05
6.43687e-05
5.04222e-05
4.62166e-05
2.89573e-05
3.27437e-05
7.21039e-05
7.45352e-05
5.72023e-05
6.69127e-05
6.82227e-05
6.38798e-05
5.61417e-05
5.32372e-05
4.04304e-05
3.66603e-05
6.00743e-05
6.08658e-05
4.79996e-05
4.54203e-05
3.69331e-05
3.11736e-05
3.40103e-05
3.95785e-05
5.21411e-05
6.84731e-05
8.1211e-05
6.57192e-05
5.66156e-05
5.33653e-05
3.32074e-05
3.73218e-05
5.09894e-05
5.30996e-05
6.33379e-05
9.22237e-05
0.000106137
8.2803e-05
3.89024e-05
2.2956e-05
1.75479e-05
2.39787e-05
4.20317e-05
2.91917e-05
2.80984e-05
7.39066e-05
0.000101094
0.000101014
9.9576e-05
9.71568e-05
8.83223e-05
6.47415e-05
5.02666e-05
4.55009e-05
2.82016e-05
3.24197e-05
7.30585e-05
7.39882e-05
5.19438e-05
6.03244e-05
6.27098e-05
6.2345e-05
5.69066e-05
5.25198e-05
4.12771e-05
3.78385e-05
6.00856e-05
6.09695e-05
4.78752e-05
4.52545e-05
3.7136e-05
3.02169e-05
3.34309e-05
3.98232e-05
5.36706e-05
6.96226e-05
8.14023e-05
6.55573e-05
5.67543e-05
5.42897e-05
3.40069e-05
3.69636e-05
5.09174e-05
5.35373e-05
6.30467e-05
9.06434e-05
0.000106671
8.47922e-05
4.01264e-05
2.13543e-05
1.56993e-05
2.39194e-05
4.37063e-05
2.85637e-05
2.60365e-05
7.42638e-05
0.000102232
0.000100829
9.96943e-05
9.74279e-05
8.84004e-05
6.61167e-05
5.06557e-05
4.44241e-05
2.64214e-05
3.08274e-05
7.4411e-05
7.56344e-05
4.74492e-05
5.14557e-05
5.18654e-05
5.64994e-05
5.60338e-05
5.1656e-05
4.11179e-05
3.93414e-05
6.00774e-05
6.14013e-05
4.77492e-05
4.49662e-05
3.734e-05
3.05884e-05
3.19714e-05
3.8742e-05
5.317e-05
6.97157e-05
8.14936e-05
6.55078e-05
5.71278e-05
5.53998e-05
3.58165e-05
3.79249e-05
5.06375e-05
5.39998e-05
6.30406e-05
8.92556e-05
0.000101036
8.13464e-05
4.12031e-05
2.27603e-05
1.56579e-05
2.47522e-05
4.47776e-05
2.74184e-05
2.42814e-05
7.54437e-05
0.000103468
0.000100086
9.95473e-05
9.81106e-05
8.76235e-05
6.76881e-05
5.161e-05
4.3444e-05
2.42718e-05
2.84964e-05
7.54345e-05
7.80353e-05
4.78969e-05
4.76933e-05
4.31122e-05
4.86751e-05
5.22949e-05
5.0436e-05
4.12691e-05
4.04186e-05
6.00392e-05
6.23014e-05
4.77976e-05
4.40097e-05
3.65358e-05
2.88009e-05
2.91668e-05
3.6385e-05
5.08772e-05
6.76447e-05
7.92906e-05
6.44071e-05
5.7763e-05
5.66667e-05
3.82098e-05
3.94181e-05
5.09413e-05
5.45374e-05
6.21525e-05
8.76824e-05
9.43912e-05
7.5863e-05
4.01501e-05
2.54763e-05
1.65176e-05
2.75673e-05
4.68248e-05
2.6778e-05
2.35644e-05
7.77589e-05
0.000104634
9.84845e-05
9.91032e-05
9.86349e-05
8.72131e-05
6.83776e-05
5.2712e-05
4.21596e-05
2.26878e-05
2.54913e-05
7.49929e-05
8.13401e-05
5.29751e-05
4.73443e-05
3.98122e-05
4.33211e-05
4.94314e-05
4.92788e-05
4.17649e-05
4.08967e-05
5.9882e-05
6.31311e-05
4.78005e-05
4.40706e-05
3.23946e-05
2.4518e-05
2.45717e-05
3.25564e-05
4.68584e-05
6.32325e-05
7.52444e-05
6.24182e-05
5.68662e-05
5.79838e-05
4.07928e-05
4.10964e-05
5.09147e-05
5.58301e-05
6.09165e-05
8.59417e-05
8.70477e-05
7.01794e-05
4.0639e-05
2.85226e-05
1.76547e-05
2.97379e-05
4.94643e-05
2.96297e-05
2.37448e-05
7.85532e-05
0.000104356
9.55516e-05
9.78521e-05
9.88099e-05
8.66222e-05
7.00739e-05
5.44677e-05
4.11097e-05
2.22498e-05
2.34242e-05
7.25626e-05
8.32464e-05
5.95455e-05
5.25409e-05
4.10894e-05
4.29045e-05
4.65696e-05
4.84414e-05
4.31167e-05
4.18495e-05
5.93494e-05
6.30993e-05
4.71575e-05
4.30109e-05
3.2478e-05
1.97946e-05
2.02313e-05
2.78524e-05
4.16812e-05
5.61979e-05
6.92956e-05
6.00618e-05
5.6522e-05
5.93161e-05
4.31421e-05
4.26189e-05
5.04688e-05
5.63451e-05
6.12876e-05
8.66459e-05
8.0067e-05
6.56316e-05
4.25499e-05
3.16211e-05
2.15301e-05
3.08698e-05
5.00362e-05
3.55026e-05
2.72618e-05
7.56743e-05
0.000100518
9.03117e-05
9.4784e-05
9.69192e-05
8.61102e-05
7.44605e-05
5.87545e-05
4.04441e-05
1.99606e-05
2.03525e-05
6.96718e-05
7.98349e-05
6.28259e-05
6.14691e-05
4.43787e-05
4.42476e-05
4.38317e-05
4.85627e-05
4.5893e-05
4.41582e-05
5.75388e-05
6.14795e-05
4.57703e-05
4.13133e-05
3.21015e-05
1.606e-05
1.94108e-05
2.4289e-05
3.62341e-05
4.78307e-05
6.12651e-05
5.73083e-05
5.67777e-05
5.9155e-05
4.54358e-05
4.4722e-05
5.01471e-05
5.6106e-05
6.21806e-05
8.38701e-05
7.53489e-05
6.28749e-05
4.38902e-05
3.42654e-05
2.3869e-05
3.14802e-05
5.10724e-05
3.96706e-05
3.13577e-05
7.04069e-05
9.5482e-05
8.57295e-05
8.84143e-05
9.01533e-05
8.15532e-05
7.52058e-05
6.4625e-05
4.17076e-05
1.4931e-05
1.35653e-05
6.53565e-05
7.56042e-05
6.48844e-05
6.34147e-05
4.63279e-05
4.84678e-05
4.10927e-05
4.96324e-05
5.009e-05
4.88699e-05
5.44354e-05
5.8122e-05
4.54849e-05
3.93887e-05
2.99839e-05
1.63732e-05
2.04034e-05
2.22398e-05
3.12656e-05
4.03448e-05
5.31149e-05
5.44396e-05
5.7746e-05
5.9233e-05
4.82134e-05
4.68597e-05
5.05046e-05
5.62904e-05
6.28659e-05
7.8111e-05
7.20943e-05
6.0479e-05
4.52094e-05
3.59166e-05
2.59256e-05
3.18154e-05
5.1515e-05
4.19958e-05
3.24985e-05
6.39601e-05
9.02982e-05
8.42075e-05
8.4598e-05
8.02653e-05
7.42414e-05
7.34897e-05
6.7972e-05
4.24271e-05
8.75943e-06
3.13018e-06
5.38543e-05
7.26353e-05
6.6929e-05
6.37232e-05
4.82676e-05
4.77727e-05
4.50802e-05
5.02103e-05
5.4129e-05
5.04437e-05
5.10812e-05
5.38121e-05
4.48403e-05
3.91515e-05
2.89011e-05
1.41627e-05
1.86972e-05
1.8109e-05
2.55216e-05
3.38618e-05
4.68696e-05
5.25697e-05
5.9493e-05
5.94003e-05
5.13385e-05
4.91697e-05
5.07377e-05
5.34996e-05
6.02339e-05
7.76951e-05
6.82575e-05
5.73584e-05
4.62387e-05
3.79102e-05
2.82013e-05
3.34291e-05
5.32044e-05
4.31319e-05
3.14603e-05
5.598e-05
8.20198e-05
8.1793e-05
8.3397e-05
6.90048e-05
6.48027e-05
6.82449e-05
6.51623e-05
3.99787e-05
2.60432e-06
-6.00176e-06
3.97021e-05
6.97608e-05
6.74998e-05
6.37786e-05
5.13735e-05
4.67088e-05
4.67495e-05
4.8383e-05
5.49002e-05
5.24155e-05
4.84087e-05
4.94881e-05
4.51095e-05
4.0882e-05
3.06715e-05
1.21132e-05
1.63113e-05
1.20282e-05
1.879e-05
2.72163e-05
4.10542e-05
5.29765e-05
5.76829e-05
5.68141e-05
5.33701e-05
5.19109e-05
4.98123e-05
4.55789e-05
5.00229e-05
6.99746e-05
6.36828e-05
5.41597e-05
4.6159e-05
3.90459e-05
3.22287e-05
3.70494e-05
5.36608e-05
4.3408e-05
2.90186e-05
4.56611e-05
6.98125e-05
7.37428e-05
7.2754e-05
5.858e-05
5.48449e-05
6.08983e-05
5.83675e-05
3.71625e-05
2.51874e-06
-7.5176e-06
2.97328e-05
6.53658e-05
6.46557e-05
6.10355e-05
5.19043e-05
4.4075e-05
4.44453e-05
4.23783e-05
4.91252e-05
5.3046e-05
4.79693e-05
4.7343e-05
4.74359e-05
4.2013e-05
3.05498e-05
1.27333e-05
1.59334e-05
1.1999e-05
1.58742e-05
2.27026e-05
4.41806e-05
5.59409e-05
5.44376e-05
5.00846e-05
5.31218e-05
5.28095e-05
4.56899e-05
3.47392e-05
3.67225e-05
5.40479e-05
5.8168e-05
5.16006e-05
4.52079e-05
3.75843e-05
3.45064e-05
3.99043e-05
5.46521e-05
4.60031e-05
2.32501e-05
3.40847e-05
5.91736e-05
6.4571e-05
6.435e-05
4.87016e-05
4.47425e-05
4.71828e-05
5.10127e-05
3.62321e-05
6.26863e-06
-5.06994e-06
2.62686e-05
5.99061e-05
5.90055e-05
5.54504e-05
4.85669e-05
3.80786e-05
3.80411e-05
3.2596e-05
4.27315e-05
5.32026e-05
3.61779e-05
4.7502e-05
5.19857e-05
4.22411e-05
2.89329e-05
9.97826e-06
1.8348e-05
2.25149e-05
2.18249e-05
2.37328e-05
4.33948e-05
5.7268e-05
4.61036e-05
3.65348e-05
4.81245e-05
5.16715e-05
4.10269e-05
2.8103e-05
2.4302e-05
4.10825e-05
5.36439e-05
4.99977e-05
4.33842e-05
3.71354e-05
3.36126e-05
4.01603e-05
5.71975e-05
4.81434e-05
2.07692e-05
2.84362e-05
5.63735e-05
6.74247e-05
6.21885e-05
4.24595e-05
3.54299e-05
3.68488e-05
4.49045e-05
3.28205e-05
5.66987e-06
-5.38416e-06
2.52253e-05
5.80981e-05
5.99337e-05
5.6275e-05
4.66035e-05
3.33722e-05
3.69857e-05
3.07658e-05
3.9196e-05
5.2393e-05
3.82766e-05
5.17056e-05
5.87569e-05
4.67628e-05
3.17136e-05
2.16388e-05
2.27581e-05
3.02252e-05
3.22126e-05
3.07182e-05
4.36383e-05
5.33134e-05
3.34763e-05
1.73975e-05
3.35995e-05
4.55345e-05
4.01329e-05
3.02636e-05
1.97699e-05
3.16613e-05
5.15858e-05
5.21628e-05
4.51059e-05
3.53112e-05
2.84822e-05
3.79617e-05
5.79832e-05
5.0587e-05
2.9541e-05
3.5431e-05
6.66405e-05
7.58658e-05
6.41213e-05
4.00381e-05
2.51326e-05
3.19223e-05
4.50125e-05
3.2071e-05
7.80463e-06
-2.2111e-06
3.23223e-05
5.99035e-05
6.19792e-05
5.80684e-05
4.74049e-05
3.49268e-05
4.66128e-05
4.77867e-05
3.59046e-05
4.81926e-05
3.72203e-05
5.1669e-05
6.15871e-05
5.17541e-05
4.14247e-05
3.31477e-05
2.5342e-05
3.10427e-05
3.97988e-05
3.81647e-05
3.66814e-05
4.31181e-05
2.378e-05
4.57112e-06
2.2611e-05
3.92441e-05
4.25689e-05
3.77672e-05
2.04154e-05
2.39521e-05
4.93711e-05
5.7242e-05
4.66805e-05
3.43312e-05
2.63582e-05
3.49339e-05
4.75985e-05
5.0974e-05
4.41681e-05
4.7114e-05
7.74699e-05
8.31146e-05
6.46735e-05