/*--------------------------------*- C++ -*----------------------------------*\
| =========                 |                                                 |
| \\      /  F ield         | OpenFOAM: The Open Source CFD Toolbox           |
|  \\    /   O peration     | Version:  2.3.0                                 |
|   \\  /    A nd           | Web:      www.OpenFOAM.org                      |
|    \\/     M anipulation  |                                                 |
\*---------------------------------------------------------------------------*/
FoamFile
{
    version     2.0;
    format      ascii;
    class       surfaceScalarField;
    location    "100";
    object      phi;
}
// * * * * * * * * * * * * * * * * * * * * * * * * * * * * * * * * * * * * * //

dimensions      [0 3 -1 0 0 0 0];

internalField   nonuniform List<scalar> 
263700
(
6.08133e-06
-1.26983e-07
8.5699e-08
6.02514e-06
-3.78696e-08
6.2065e-08
5.92592e-06
-4.49845e-08
9.03607e-08
5.77611e-06
-3.12188e-08
8.79814e-08
5.63886e-06
-1.06311e-07
7.78949e-09
5.62778e-06
-3.33047e-07
2.08688e-08
5.55445e-06
-3.07886e-07
2.47241e-08
5.3816e-06
-2.12305e-07
2.85321e-10
5.27417e-06
-3.04682e-07
6.9146e-08
5.14788e-06
-2.7623e-07
1.42115e-07
4.97036e-06
-2.00827e-07
1.86209e-07
4.76099e-06
-2.19039e-07
2.51848e-07
4.57035e-06
-1.9154e-07
2.69821e-07
4.39177e-06
-9.0258e-08
1.72314e-07
4.23472e-06
-4.89156e-08
2.24918e-08
4.26369e-06
-2.35433e-07
1.5323e-08
4.2206e-06
-1.56557e-07
7.26586e-08
4.15502e-06
-1.01473e-07
1.05164e-07
4.19424e-06
-1.91703e-07
1.43775e-07
4.18644e-06
-1.18621e-07
1.42463e-07
4.21781e-06
-8.09727e-08
1.07626e-07
4.23632e-06
5.41304e-08
5.57234e-08
4.29902e-06
6.73534e-08
-6.28297e-09
4.37512e-06
1.14122e-07
-8.20694e-08
4.46577e-06
1.8011e-07
-9.19328e-08
4.65086e-06
1.01358e-07
-3.05774e-08
4.7239e-06
2.00849e-07
8.66884e-09
4.78798e-06
1.74224e-07
1.38795e-08
4.86315e-06
6.91363e-08
3.21591e-08
4.85529e-06
5.90891e-08
1.92139e-08
4.92811e-06
-6.53065e-08
-9.62083e-08
4.90359e-06
5.07934e-08
-2.36746e-07
4.82519e-06
1.75188e-07
-3.94718e-07
4.84293e-06
1.35507e-07
-5.0749e-07
4.93565e-06
3.19205e-08
-4.86714e-07
5.1404e-06
-1.54855e-07
-3.76714e-07
5.24706e-06
-1.54487e-07
-2.14997e-07
5.23872e-06
-4.29456e-08
-6.23309e-08
5.26892e-06
-1.0291e-07
8.78551e-08
5.20323e-06
-4.4692e-08
2.14066e-07
5.19486e-06
-1.08682e-07
3.06655e-07
5.34315e-06
-2.57551e-07
3.59295e-07
5.36359e-06
-6.65462e-08
3.74719e-07
5.41022e-06
-5.55311e-09
3.04321e-07
5.63133e-06
-1.91071e-07
2.31693e-07
5.83619e-06
-2.31067e-07
1.7476e-07
5.94651e-06
-1.17987e-07
9.72742e-08
5.99072e-06
-3.75551e-08
3.23528e-08
5.97849e-06
1.30823e-08
-1.77381e-08
-7.71945e-08
2.03906e-08
1.99653e-05
-6.3086e-07
3.15348e-07
2.00156e-05
-4.71124e-07
2.36323e-07
1.98336e-05
-4.75615e-07
3.75847e-07
1.95147e-05
-4.4732e-07
4.19804e-07
1.92801e-05
-6.74146e-07
1.47494e-07
1.91116e-05
-1.13206e-06
8.69018e-08
1.87977e-05
-9.85326e-07
-7.40545e-09
1.84271e-05
-7.06188e-07
-1.99511e-07
1.80405e-05
-8.7254e-07
2.94226e-09
1.7499e-05
-7.2416e-07
2.63671e-07
1.68598e-05
-5.89146e-07
4.60459e-07
1.61204e-05
-6.55438e-07
6.72651e-07
1.54115e-05
-5.34255e-07
7.18915e-07
1.4822e-05
-2.87029e-07
4.71586e-07
1.43928e-05
-2.70197e-07
1.23986e-07
1.42303e-05
-7.04112e-07
1.39556e-07
1.39854e-05
-4.53006e-07
2.34013e-07
1.38123e-05
-3.51267e-07
2.74324e-07
1.37899e-05
-4.91681e-07
3.19508e-07
1.37091e-05
-2.85471e-07
2.98657e-07
1.37408e-05
-1.6613e-07
1.97275e-07
1.38297e-05
2.17837e-07
7.06712e-08
1.40197e-05
2.87251e-07
-8.36181e-08
1.42468e-05
4.39859e-07
-1.94948e-07
1.45625e-05
5.83636e-07
-1.37466e-07
1.49783e-05
4.30254e-07
-7.62722e-09
1.52679e-05
6.51363e-07
1.51068e-08
1.55966e-05
4.90493e-07
1.26824e-08
1.58442e-05
2.2435e-07
2.00662e-08
1.59605e-05
1.18627e-07
-7.867e-08
1.6122e-05
-1.58785e-07
-3.44384e-07
1.60616e-05
1.53182e-07
-6.35034e-07
1.5942e-05
4.14509e-07
-1.00169e-06
1.60528e-05
2.75493e-07
-1.32103e-06
1.63294e-05
5.81955e-09
-1.34853e-06
1.67351e-05
-3.98632e-07
-1.10995e-06
1.7006e-05
-3.77783e-07
-7.56166e-07
1.70939e-05
-1.47934e-07
-2.963e-07
1.71738e-05
-2.2319e-07
7.43841e-08
1.71251e-05
-1.52672e-07
4.4254e-07
1.71649e-05
-3.60358e-07
7.43135e-07
1.73721e-05
-6.41029e-07
9.03895e-07
1.75117e-05
-2.50378e-07
9.70546e-07
1.77958e-05
-2.36553e-07
8.68776e-07
1.83087e-05
-7.19134e-07
8.04849e-07
1.87624e-05
-7.96799e-07
6.77467e-07
1.90785e-05
-5.1402e-07
4.98118e-07
1.9329e-05
-3.42499e-07
3.45276e-07
1.94861e-05
-2.40324e-07
1.67965e-07
-4.46526e-07
1.81055e-07
3.59722e-05
-1.59189e-06
6.52098e-07
3.65974e-05
-1.52734e-06
4.0028e-07
3.67299e-05
-1.46613e-06
5.51056e-07
3.64297e-05
-1.40196e-06
9.37522e-07
3.62009e-05
-1.7876e-06
6.37737e-07
3.59018e-05
-2.35977e-06
4.15719e-07
3.53498e-05
-2.01139e-06
1.8467e-07
3.49015e-05
-1.47939e-06
-4.39723e-07
3.44281e-05
-1.59979e-06
-4.85257e-07
3.36602e-05
-1.20855e-06
-1.11216e-07
3.27168e-05
-1.03879e-06
2.97134e-07
3.14376e-05
-1.16687e-06
7.92406e-07
2.99562e-05
-8.7993e-07
1.14196e-06
2.86581e-05
-4.84141e-07
9.75065e-07
2.76728e-05
-5.26358e-07
3.914e-07
2.69513e-05
-1.21955e-06
3.01292e-07
2.62127e-05
-8.20621e-07
4.12689e-07
2.56758e-05
-7.26114e-07
4.54981e-07
2.53959e-05
-9.18054e-07
4.9324e-07
2.50963e-05
-5.28467e-07
4.83262e-07
2.49451e-05
-3.33728e-07
3.49149e-07
2.49844e-05
3.17748e-07
1.59835e-07
2.52113e-05
5.23807e-07
-1.0262e-07
2.55286e-05
8.44001e-07
-3.30284e-07
2.60136e-05
1.12288e-06
-2.24673e-07
2.66067e-05
9.89052e-07
1.78792e-08
2.71203e-05
1.38303e-06
3.4487e-08
2.78005e-05
1.05438e-06
6.12124e-09
2.8424e-05
5.36482e-07
4.17285e-08
2.88725e-05
2.1527e-07
-7.59352e-08
2.92701e-05
-2.73901e-07
-3.97285e-07
2.93451e-05
2.2665e-07
-7.27495e-07
2.91747e-05
6.6857e-07
-1.20018e-06
2.9165e-05
5.26985e-07
-1.81852e-06
2.94036e-05
1.16657e-07
-2.19463e-06
2.98446e-05
-5.20712e-07
-2.06149e-06
3.03167e-05
-5.52928e-07
-1.75757e-06
3.06401e-05
-2.98583e-07
-1.13586e-06
3.09086e-05
-3.92304e-07
-5.14876e-07
3.10649e-05
-2.0031e-07
-2.27773e-08
3.11861e-05
-6.52124e-07
6.48658e-07
3.13104e-05
-9.66078e-07
1.06844e-06
3.14893e-05
-4.03741e-07
1.29261e-06
3.19154e-05
-5.03471e-07
1.24239e-06
3.25445e-05
-1.32518e-06
1.34146e-06
3.31679e-05
-1.54037e-06
1.32319e-06
3.36904e-05
-1.12481e-06
1.12329e-06
3.42533e-05
-9.68433e-07
1.00649e-06
3.47559e-05
-8.41432e-07
6.95272e-07
-1.1052e-06
5.11453e-07
5.23208e-05
-2.73935e-06
1.31803e-06
5.37338e-05
-3.01556e-06
7.67491e-07
5.47863e-05
-3.0168e-06
4.20808e-07
5.50411e-05
-2.97369e-06
1.14084e-06
5.51019e-05
-3.53545e-06
1.26117e-06
5.48927e-05
-4.08367e-06
1.07809e-06
5.41384e-05
-3.40354e-06
9.36085e-07
5.36007e-05
-2.59779e-06
-6.25756e-08
5.33425e-05
-2.5638e-06
-1.03547e-06
5.28653e-05
-1.82454e-06
-1.00436e-06
5.22482e-05
-1.53804e-06
-5.90002e-07
5.10925e-05
-1.68359e-06
1.42427e-08
4.91458e-05
-1.24567e-06
1.00819e-06
4.70312e-05
-6.7366e-07
1.47709e-06
4.52865e-05
-7.25688e-07
8.71563e-07
4.36516e-05
-1.52714e-06
5.51635e-07
4.19321e-05
-9.90788e-07
6.20668e-07
4.05377e-05
-1.05724e-06
6.67923e-07
3.95642e-05
-1.40795e-06
7.0058e-07
3.87252e-05
-8.63563e-07
7.18394e-07
3.80665e-05
-6.59713e-07
5.97358e-07
3.7752e-05
1.41655e-07
3.93384e-07
3.77802e-05
4.54466e-07
1.07288e-07
3.80185e-05
9.7804e-07
-3.92739e-07
3.85656e-05
1.42332e-06
-4.10761e-07
3.92675e-05
1.43761e-06
3.51485e-08
3.98604e-05
2.23413e-06
1.65227e-07
4.07397e-05
1.96494e-06
5.76593e-08
4.17744e-05
1.25435e-06
1.29214e-07
4.27669e-05
5.75284e-07
2.93939e-08
4.36436e-05
-2.67236e-07
-3.3324e-07
4.41904e-05
2.77079e-07
-5.77101e-07
4.42884e-05
8.02013e-07
-8.88391e-07
4.40929e-05
8.41048e-07
-1.57187e-06
4.39682e-05
4.64414e-07
-2.45089e-06
4.40187e-05
-2.96496e-07
-2.7337e-06
4.43451e-05
-3.18557e-07
-2.85745e-06
4.48097e-05
-1.66293e-07
-2.57239e-06
4.53149e-05
-4.06701e-07
-1.92859e-06
4.58954e-05
-2.78532e-07
-1.2901e-06
4.6501e-05
-9.40586e-07
-4.78056e-07
4.67681e-05
-1.21753e-06
3.40197e-07
4.69364e-05
-3.56534e-07
9.43221e-07
4.74245e-05
-5.38547e-07
9.8033e-07
4.79596e-05
-1.61124e-06
1.26863e-06
4.85017e-05
-2.00228e-06
1.63332e-06
4.8998e-05
-1.4602e-06
1.55948e-06
4.96332e-05
-1.44277e-06
1.6933e-06
5.04267e-05
-1.61012e-06
1.62337e-06
-1.92024e-06
1.23689e-06
6.75502e-05
-3.50978e-06
2.39905e-06
6.9323e-05
-4.26017e-06
1.80035e-06
7.12746e-05
-4.54536e-06
4.9727e-07
7.25606e-05
-4.85939e-06
8.00427e-07
7.33379e-05
-5.73535e-06
1.28692e-06
7.35695e-05
-6.15745e-06
1.41625e-06
7.2847e-05
-4.92502e-06
1.65493e-06
7.20635e-05
-3.70303e-06
9.57031e-07
7.19279e-05
-3.61325e-06
-8.22532e-07
7.2044e-05
-2.51451e-06
-1.9512e-06
7.22813e-05
-1.96467e-06
-1.91233e-06
7.22155e-05
-2.32066e-06
-1.4154e-06
7.10925e-05
-1.82199e-06
-3.37885e-07
6.90339e-05
-1.14365e-06
1.12542e-06
6.70779e-05
-1.20598e-06
1.13817e-06
6.49246e-05
-1.80578e-06
8.32473e-07
6.22796e-05
-8.20796e-07
8.3764e-07
5.97347e-05
-9.7374e-07
8.1551e-07
5.75282e-05
-1.59646e-06
8.24883e-07
5.56584e-05
-9.78075e-07
8.86296e-07
5.40277e-05
-7.26591e-07
8.07088e-07
5.28742e-05
9.69309e-09
6.13447e-07
5.22299e-05
1.7172e-07
4.88538e-07
5.19522e-05
7.28315e-07
-8.02086e-08
5.22453e-05
1.15779e-06
-5.34585e-07
5.29268e-05
1.12206e-06
-4.90916e-08
5.34979e-05
2.41017e-06
4.26477e-07
5.42921e-05
2.55179e-06
3.49382e-07
5.53712e-05
2.19397e-06
4.05492e-07
5.67238e-05
1.50392e-06
3.2815e-07
5.80728e-05
3.47495e-07
-2.50423e-07
5.92519e-05
7.99724e-07
-5.046e-07
6.02486e-05
8.51006e-07
-4.93953e-07
6.05163e-05
8.27081e-07
-7.08063e-07
6.02007e-05
7.30733e-07
-1.74809e-06
5.95697e-05
1.90269e-07
-2.49649e-06
5.91034e-05
6.11749e-07
-3.07474e-06
5.90863e-05
8.24296e-07
-3.57103e-06
5.93403e-05
4.14378e-07
-3.55894e-06
5.99734e-05
4.08998e-07
-3.28862e-06
6.1174e-05
-8.89852e-07
-2.5205e-06
6.22162e-05
-1.52597e-06
-1.47317e-06
6.28674e-05
-2.31597e-07
-4.14026e-07
6.37272e-05
-4.11437e-07
-8.93177e-08
6.43252e-05
-1.5863e-06
1.75349e-07
6.46694e-05
-1.90677e-06
8.98141e-07
6.49592e-05
-1.07402e-06
1.14868e-06
6.52586e-05
-9.41916e-07
1.55161e-06
6.57936e-05
-1.69965e-06
2.2211e-06
-2.36155e-06
2.18869e-06
8.19079e-05
-3.11168e-06
3.22585e-06
8.3334e-05
-4.52295e-06
3.32518e-06
8.55371e-05
-5.27042e-06
1.42451e-06
8.75929e-05
-6.24638e-06
6.9739e-07
8.91812e-05
-7.79934e-06
7.73868e-07
8.9933e-05
-8.04203e-06
1.03892e-06
8.93974e-05
-5.98133e-06
1.55074e-06
8.8349e-05
-3.96742e-06
1.49736e-06
8.79653e-05
-3.90749e-06
-1.4629e-07
8.84996e-05
-2.83928e-06
-2.48945e-06
8.96061e-05
-1.92293e-06
-3.29045e-06
9.06944e-05
-2.42247e-06
-2.90597e-06
9.10877e-05
-2.26561e-06
-2.17204e-06
9.01051e-05
-1.83176e-06
-3.19099e-07
8.88579e-05
-2.13804e-06
4.13116e-07
8.73055e-05
-2.62635e-06
5.95626e-07
8.50258e-05
-1.05509e-06
9.68523e-07
8.24659e-05
-8.91922e-07
8.65752e-07
7.95831e-05
-1.48443e-06
6.0153e-07
7.68089e-05
-7.38463e-07
5.70626e-07
7.40941e-05
-1.20221e-07
6.7964e-07
7.17923e-05
7.30692e-07
4.63773e-07
7.00315e-05
4.07581e-07
5.45522e-07
6.86426e-05
6.16902e-07
3.80282e-07
6.79864e-05
7.93542e-07
-2.06351e-07
6.80405e-05
4.91934e-07
-2.47759e-07
6.82794e-05
1.69566e-06
5.16582e-07
6.87949e-05
1.76346e-06
8.69706e-07
6.96152e-05
1.81119e-06
1.02176e-06
7.09095e-05
1.99936e-06
1.09994e-06
7.23137e-05
1.44385e-06
2.61518e-07
7.35562e-05
2.43606e-06
-3.40496e-07
7.53095e-05
1.92282e-06
-4.0857e-07
7.68421e-05
7.57998e-07
5.35094e-08
7.73458e-05
2.46875e-07
-4.23369e-07
7.65862e-05
3.20621e-07
-1.53719e-06
7.52818e-05
1.81334e-06
-2.20209e-06
7.43924e-05
2.52926e-06
-2.98353e-06
7.383e-05
2.18949e-06
-3.80155e-06
7.36584e-05
2.41269e-06
-4.56791e-06
7.44443e-05
7.62686e-07
-4.54119e-06
7.58647e-05
-8.07612e-07
-3.84696e-06
7.72473e-05
3.45616e-07
-2.5154e-06
7.88964e-05
4.79205e-08
-1.69204e-06
8.01739e-05
-1.37743e-06
-1.55648e-06
8.08688e-05
-1.58104e-06
-9.42801e-07
8.14044e-05
-4.29689e-07
-3.91434e-07
8.1646e-05
3.52821e-07
1.53651e-07
8.16849e-05
-5.00554e-07
1.4109e-06
-1.63558e-06
2.34193e-06
9.69206e-05
-1.33257e-06
2.71259e-06
9.72359e-05
-3.18759e-06
4.20033e-06
9.90349e-05
-4.783e-06
2.76604e-06
0.000101282
-6.73287e-06
1.35095e-06
0.000103427
-9.33273e-06
5.32494e-07
0.00010461
-9.42642e-06
3.53516e-07
0.000104101
-5.95942e-06
9.69981e-07
0.000102683
-2.97943e-06
1.55622e-06
0.000101729
-2.79538e-06
6.9165e-07
0.000102194
-2.19825e-06
-2.36074e-06
0.000103854
-1.1324e-06
-4.48273e-06
0.000105626
-1.53526e-06
-4.07162e-06
0.000107261
-1.8435e-06
-3.52007e-06
0.000107501
-2.05712e-06
-1.79002e-06
0.000107007
-2.87528e-06
-8.55537e-07
0.000106092
-3.41107e-06
-5.55582e-07
0.0001044
-1.52551e-06
5.9564e-07
0.000102752
-1.16044e-06
9.99929e-07
0.000100827
-1.72534e-06
2.81476e-07
9.89068e-05
-1.04014e-06
-5.27564e-07
9.66208e-05
2.2978e-07
-4.51672e-07
9.42358e-05
1.99085e-06
-3.7971e-07
9.19879e-05
1.69602e-06
-3.01311e-07
8.96236e-05
1.3573e-06
6.16265e-09
8.77161e-05
8.57665e-07
1.65404e-07
8.64103e-05
3.02489e-07
-9.19077e-08
8.55531e-05
1.5013e-06
2.20128e-07
8.51097e-05
9.06363e-07
1.08978e-06
8.50469e-05
4.81712e-08
1.61665e-06
8.59265e-05
4.72476e-07
1.97019e-06
8.72894e-05
1.05447e-06
1.22255e-06
8.81463e-05
3.89872e-06
5.71972e-07
8.95053e-05
4.41935e-06
1.62724e-07
9.16794e-05
2.38692e-06
3.434e-07
9.3658e-05
-1.10216e-07
7.21996e-07
9.38644e-05
-5.24335e-07
-1.28966e-07
9.23934e-05
2.55082e-06
-1.08114e-06
9.09895e-05
4.23725e-06
-1.4791e-06
8.98118e-05
4.08361e-06
-2.11464e-06
8.87895e-05
4.66774e-06
-3.49364e-06
8.85195e-05
3.34799e-06
-4.5238e-06
8.9085e-05
1.63663e-06
-5.14926e-06
9.02654e-05
2.5838e-06
-4.82675e-06
9.22372e-05
1.89739e-06
-3.67852e-06
9.39876e-05
-1.69487e-07
-2.93478e-06
9.51482e-05
-3.22697e-07
-2.75884e-06
9.6484e-05
6.80844e-07
-2.65069e-06
9.7677e-05
1.5709e-06
-2.15083e-06
9.82e-05
9.13072e-07
-6.52189e-07
-1.65637e-07
9.79045e-07
0.000113022
4.53e-07
8.94548e-07
0.000112063
-4.26472e-07
3.49909e-06
0.000112903
-2.65885e-06
3.22418e-06
0.000114978
-6.24792e-06
1.88506e-06
0.000117461
-1.05516e-05
6.35617e-07
0.000119148
-1.07017e-05
-4.54477e-07
0.000118765
-5.46293e-06
6.31439e-08
0.00011698
-1.15236e-06
1.52921e-06
0.000115193
-9.41026e-07
2.3522e-06
0.000115033
-6.67686e-07
-6.19056e-07
0.000116957
6.5096e-08
-4.48288e-06
0.000118951
-2.59538e-08
-4.57048e-06
0.00012102
-5.46494e-07
-3.89699e-06
0.000122155
-1.51572e-06
-2.36876e-06
0.000122189
-2.97213e-06
-1.43996e-06
0.000121673
-3.6201e-06
-1.68344e-06
0.000120082
-1.46819e-06
-4.45528e-07
0.000118309
-8.36081e-07
9.74967e-07
0.000116553
-1.41827e-06
5.37288e-07
0.000115615
-1.45236e-06
-1.47715e-06
0.000114882
-1.99383e-07
-2.66569e-06
0.000114218
2.42626e-06
-2.49391e-06
0.000113744
2.67097e-06
-2.04531e-06
0.000112586
2.50858e-06
-2.02498e-06
0.000110994
1.21777e-06
-1.02868e-06
0.000108846
2.35165e-07
5.35686e-08
0.00010677
1.79681e-06
-9.44649e-09
0.00010516
1.14931e-06
6.61191e-07
0.000103374
-6.40967e-07
1.84162e-06
0.000102545
-1.08009e-06
2.48562e-06
0.000103267
-5.52638e-07
1.54029e-06
0.000103995
3.38131e-06
1.15144e-06
0.000104699
6.11761e-06
1.29502e-06
0.000106187
5.59511e-06
1.04925e-06
0.000108776
1.29762e-06
1.67834e-06
0.000110378
-1.6737e-06
1.5439e-06
0.000109463
2.47695e-06
1.51259e-07
0.000107929
5.62828e-06
-3.59831e-07
0.000106472
6.04652e-06
-4.9955e-07
0.000105142
6.57959e-06
-1.39327e-06
0.000104511
4.91223e-06
-1.92117e-06
0.000104156
3.84687e-06
-3.21099e-06
0.000104269
5.96399e-06
-5.32554e-06
0.000105839
5.2493e-06
-5.69333e-06
0.000107544
2.0489e-06
-4.2277e-06
0.00010838
2.19561e-06
-3.57603e-06
0.000109696
3.76349e-06
-4.22262e-06
0.000111666
3.9952e-06
-4.03053e-06
0.000113364
2.62017e-06
-2.98279e-06
6.64959e-07
-9.64698e-07
0.000128915
1.22059e-06
-3.60357e-07
0.000127517
2.64104e-06
1.96344e-06
0.000127138
1.5636e-06
2.34688e-06
0.000128622
-3.81282e-06
1.1329e-06
0.000131261
-1.10157e-05
-1.52576e-07
0.000133636
-1.19958e-05
-1.74364e-06
0.000134037
-5.43988e-06
-1.8259e-06
0.000132609
1.8389e-07
3.35699e-07
0.00013019
6.42535e-07
3.65644e-06
0.000128751
1.01625e-06
2.2952e-06
0.000130522
1.37364e-06
-2.77518e-06
0.00013285
1.35621e-06
-4.0349e-06
0.000134785
9.56293e-07
-3.23876e-06
0.000136135
-5.06815e-07
-1.99932e-06
0.000136403
-2.40477e-06
-1.13646e-06
0.00013607
-2.97728e-06
-2.01015e-06
0.000134528
-6.952e-07
-1.30267e-06
0.000132184
2.68734e-07
6.99821e-07
0.00012945
5.58177e-08
1.10153e-06
0.000128069
-9.15201e-07
-1.36171e-06
0.000127716
-3.00732e-07
-4.38761e-06
0.000127841
2.78594e-06
-5.37912e-06
0.000128958
3.05035e-06
-4.1704e-06
0.000130216
2.99301e-06
-4.14074e-06
0.000131555
8.14106e-07
-4.1457e-06
0.00013142
-1.13318e-06
-1.47692e-06
0.000129717
1.14691e-06
-3.27667e-07
0.000127961
1.27111e-06
-8.5599e-08
0.000125259
-5.39058e-07
1.62829e-06
0.000122284
-1.45684e-06
3.37717e-06
0.000120994
-7.88385e-07
1.71225e-06
0.000120818
3.14721e-06
3.38681e-07
0.000120895
6.50885e-06
1.60706e-06
0.000121377
8.32572e-06
1.75149e-06
0.000123611
4.1934e-06
1.82269e-06
0.000126207
-2.14e-06
2.86167e-06
0.00012635
1.21445e-06
2.14726e-06
0.000125142
5.64566e-06
1.10248e-06
0.000123395
7.48519e-06
6.71165e-07
0.000121542
9.17655e-06
-8.8342e-07
0.000120919
6.1875e-06
-5.74564e-07
0.00012062
4.3729e-06
5.21435e-07
0.000120195
8.10646e-06
-2.09831e-06
0.000121278
8.82818e-06
-5.71452e-06
0.000122817
4.62423e-06
-5.48923e-06
0.000122908
4.54358e-06
-3.97865e-06
0.000123221
7.70811e-06
-5.06999e-06
0.000124971
8.09452e-06
-5.24271e-06
0.000127112
5.91093e-06
-4.13051e-06
1.88747e-06
-2.01268e-06
0.000144217
1.33473e-06
1.5531e-07
0.000143018
4.8067e-06
1.88512e-06
0.000141799
6.95902e-06
1.75806e-06
0.00014248
1.66615e-06
-3.63849e-07
0.000144957
-8.91283e-06
-2.23973e-06
0.000147637
-1.19877e-05
-3.91379e-06
0.000149031
-5.6825e-06
-4.61684e-06
0.000149075
-4.25153e-07
-2.65727e-06
0.000147193
1.70494e-07
2.77861e-06
0.000144435
1.75444e-06
4.66065e-06
0.000145276
2.36354e-06
-5.50173e-07
0.00014807
2.19442e-06
-3.0721e-06
0.000150139
1.91767e-06
-2.04732e-06
0.000151167
6.11905e-07
-8.18619e-07
0.000151036
-1.27599e-06
-1.68829e-07
0.000150471
-1.32352e-06
-1.63334e-06
0.000149115
1.01054e-06
-1.87641e-06
0.000146664
1.75415e-06
4.54839e-07
0.000142926
2.14172e-06
1.8122e-06
0.000140424
4.21534e-07
-2.76133e-07
0.000139607
-2.92277e-07
-3.91073e-06
0.000139346
3.17602e-06
-6.84163e-06
0.000140321
3.51827e-06
-6.03348e-06
0.00014209
3.60592e-06
-5.03067e-06
0.00014527
3.84434e-07
-6.53515e-06
0.000148275
-3.76467e-06
-4.50293e-06
0.000149031
-1.40242e-06
-1.53937e-06
0.00014881
7.58379e-08
-1.43599e-06
0.000147109
-1.11125e-06
3.09943e-07
0.000143723
-2.30877e-06
4.49932e-06
0.000140924
-6.06656e-07
3.63337e-06
0.000139295
4.54562e-06
-2.86887e-07
0.000137935
7.79857e-06
5.92283e-07
0.00013662
1.09519e-05
1.92582e-06
0.000137708
7.67867e-06
7.62917e-07
0.000140945
-1.49608e-06
1.31581e-06
0.000142584
-2.7755e-07
2.16667e-06
0.000142497
3.905e-06
1.9601e-06
0.00014112
6.33203e-06
2.62213e-06
0.000138667
1.07966e-05
-1.41644e-07
0.000137435
7.96134e-06
-1.82761e-06
0.000137127
4.09041e-06
1.84929e-06
0.000136718
8.26034e-06
2.18843e-06
0.000137905
1.05008e-05
-2.51583e-06
0.000139951
6.36443e-06
-5.04458e-06
0.000139789
5.94994e-06
-3.49964e-06
0.000138628
1.11891e-05
-5.12882e-06
0.000139234
1.2547e-05
-6.80754e-06
0.000141113
9.83495e-06
-5.74554e-06
3.61864e-06
-2.23107e-06
0.000159509
7.99423e-07
6.28547e-07
0.000158245
5.56933e-06
3.3016e-06
0.000156482
1.14763e-05
3.08738e-06
0.000156678
7.79472e-06
6.3335e-07
0.000159287
-5.19579e-06
-2.37056e-06
0.000161992
-9.96761e-06
-5.19768e-06
0.000163396
-4.09159e-06
-7.17653e-06
0.000164581
-1.84079e-06
-6.59038e-06
0.000164385
-3.27827e-06
-6.30413e-07
0.000161478
-5.98097e-08
4.71537e-06
0.000161083
2.34122e-06
9.70687e-07
0.000164077
2.16784e-06
-2.43608e-06
0.000167056
1.71872e-06
-1.38964e-06
0.000168108
1.14522e-06
5.20606e-07
0.000166977
3.67498e-07
1.33063e-06
0.000165337
1.65218e-06
-7.47837e-07
0.000164059
3.86567e-06
-2.30023e-06
0.000162371
3.17207e-06
1.02594e-07
0.000158412
3.80941e-06
2.60567e-06
0.000154803
1.90002e-06
1.16919e-06
0.000153483
-9.62305e-07
-1.74885e-06
0.000152866
2.38342e-06
-5.58257e-06
0.000153087
3.31285e-06
-6.38322e-06
0.000154003
4.44773e-06
-4.72959e-06
0.0001565
1.28092e-06
-6.48064e-06
0.000160381
-5.62634e-06
-6.28771e-06
0.000163221
-4.60529e-06
-2.83457e-06
0.000164884
-2.18467e-06
-2.55947e-06
0.000164851
-2.22092e-06
-2.12922e-06
0.000162628
-4.20379e-06
3.9131e-06
0.000160457
-2.59905e-06
6.67709e-06
0.000159212
4.62148e-06
1.8095e-06
0.000157281
8.96975e-06
6.487e-08
0.000153847
1.38225e-05
1.79564e-06
0.000152295
1.18509e-05
-1.41094e-07
0.000154758
3.8206e-07
-2.06765e-06
0.000157627
-8.37533e-07
-1.15427e-06
0.000159095
2.34757e-06
-8.00102e-07
0.000158885
3.17263e-06
2.29631e-06
0.000156525
9.50839e-06
1.58578e-06
0.000154611
8.10328e-06
-2.44965e-06
0.000153996
3.44102e-06
3.29853e-07
0.000153369
7.10731e-06
4.38384e-06
0.000154485
9.65451e-06
1.81069e-06
0.000157304
5.55478e-06
-2.31413e-06
0.000158007
5.1991e-06
-1.25412e-06
0.000156294
1.31118e-05
-2.99857e-06
0.000155592
1.67292e-05
-7.31544e-06
0.00015663
1.41384e-05
-8.59067e-06
5.23241e-06
-4.34651e-06
0.000175502
4.02777e-07
-5.42202e-07
0.000173511
6.02313e-06
3.95698e-06
0.000170988
1.51156e-05
4.59075e-06
0.000170393
1.28635e-05
3.25028e-06
0.000173302
-3.25411e-06
1.10393e-06
0.000176942
-9.22024e-06
-3.11357e-06
0.000178133
-9.3228e-07
-7.43034e-06
0.000178549
-8.97635e-07
-9.49306e-06
0.000179089
-7.12102e-06
-4.89665e-06
0.000177099
-4.68504e-06
2.56392e-06
0.000176174
-4.22086e-07
1.78676e-06
0.000179195
4.4299e-07
-1.8816e-06
0.00018374
-5.73341e-07
-1.38414e-06
0.000186119
-1.71851e-07
1.27188e-06
0.000184403
1.84515e-06
2.95284e-06
0.000181044
5.88282e-06
7.58761e-07
0.000179391
7.83852e-06
-2.35273e-06
0.000179024
4.22684e-06
-5.22084e-07
0.000175946
4.31751e-06
3.10614e-06
0.000171558
2.85443e-06
2.54779e-06
0.000169558
-1.89013e-06
-8.65668e-09
0.000169072
1.39297e-08
-3.11516e-06
0.000169212
1.24016e-06
-5.07232e-06
0.000169501
4.35815e-06
-3.80186e-06
0.00016997
3.67082e-06
-4.6527e-06
0.000171778
-4.58134e-06
-5.41981e-06
0.000174568
-6.22103e-06
-2.68738e-06
0.000177391
-4.52125e-06
-2.2985e-06
0.000178689
-3.29812e-06
-3.67436e-06
0.000177399
-5.78118e-06
1.70786e-06
0.000176641
-6.77096e-06
7.87096e-06
0.000177854
4.30255e-07
5.42999e-06
0.00017786
6.89428e-06
1.54801e-06
0.000174203
1.47635e-05
2.13152e-06
0.00017005
1.53636e-05
4.90008e-07
0.000170134
2.80592e-06
-3.52445e-06
0.00017299
-1.25856e-06
-4.15382e-06
0.000175158
1.26216e-06
-4.35237e-06
0.000175541
5.59587e-07
-1.31361e-06
0.000173322
6.79606e-06
1.40638e-06
0.000170704
6.4394e-06
-2.07269e-06
0.000169948
1.4744e-06
-1.31477e-06
0.000169762
4.78476e-06
4.34524e-06
0.000171159
6.26919e-06
5.20463e-06
0.00017435
9.8181e-07
1.82872e-06
0.000175982
8.20552e-07
2.42346e-06
0.000174932
1.16543e-05
1.28536e-06
0.000174137
1.89047e-05
-4.98647e-06
0.000174737
1.82229e-05
-1.03135e-05
7.64658e-06
-7.75866e-06
0.000192565
2.23734e-06
-2.21076e-06
0.000188776
8.22225e-06
3.69952e-06
0.000185692
1.8883e-05
5.03662e-06
0.000184395
1.70284e-05
4.65595e-06
0.000187071
-3.31361e-06
4.03298e-06
0.000191981
-1.18307e-05
4.14075e-07
0.000193662
9.76882e-07
-5.60121e-06
0.000192203
2.54763e-06
-1.01279e-05
0.000191302
-8.08783e-06
-7.97995e-06
0.000189433
-9.11009e-06
-4.58463e-07
0.000188446
-5.40523e-06
1.87222e-06
0.000191481
-3.66646e-06
-6.58752e-07
0.000197569
-5.5755e-06
-8.60009e-07
0.00020261
-4.60096e-06
1.54655e-06
0.000202051
1.68977e-06
4.14921e-06
0.000197861
1.01675e-05
2.58636e-06
0.00019572
1.20508e-05
-1.51713e-06
0.00019625
4.86538e-06
-7.19185e-07
0.000194442
3.81706e-06
3.09897e-06
0.000190047
3.32448e-06
3.03019e-06
0.000187424
-2.2523e-06
5.10498e-07
0.000187219
-2.81399e-06
-1.49598e-06
0.000188226
-2.70988e-06
-3.4862e-06
0.000188838
2.73975e-06
-3.18766e-06
0.000186849
7.67394e-06
-2.86647e-06
0.000184206
8.0103e-07
-2.86355e-06
0.00018422
-4.27073e-06
-7.44375e-07
0.00018705
-6.50483e-06
-3.05108e-07
0.000190042
-5.2528e-06
-2.82963e-06
0.000190126
-7.05377e-06
2.72381e-07
0.000190868
-1.20224e-05
6.77486e-06
0.000194784
-8.21412e-06
7.53645e-06
0.000197202
1.26164e-07
4.11267e-06
0.000194418
1.26586e-05
2.82817e-06
0.00018911
1.71766e-05
1.1631e-06
0.00018746
4.14734e-06
-3.1494e-06
0.000190372
-3.26317e-06
-4.89926e-06
0.000192203
-6.07573e-08
-5.73445e-06
0.000190734
-1.63695e-07
-3.95542e-06
0.000186734
5.56532e-06
-6.48907e-07
0.000182572
4.89395e-06
-2.12881e-06
0.000181455
-4.47657e-07
-2.16372e-06
0.000182115
2.73505e-06
3.16891e-06
0.000185049
9.9695e-07
6.62696e-06
0.000189607
-7.66797e-06
5.39091e-06
0.000192389
-7.97992e-06
6.13028e-06
0.000192759
5.89165e-06
5.50079e-06
0.000193556
1.69652e-05
-9.91848e-07
0.000195492
1.97984e-05
-9.52183e-06
1.06498e-05
-9.94862e-06
0.000210735
7.20601e-06
-2.92752e-06
0.000204461
1.35804e-05
2.6725e-06
0.00020128
2.30602e-05
3.93514e-06
0.00020014
2.00283e-05
3.72447e-06
0.000202304
-4.28068e-06
3.7617e-06
0.000207457
-1.61227e-05
9.72676e-07
0.000209294
1.21716e-06
-4.46609e-06
0.000206757
5.63327e-06
-8.90221e-06
0.00020446
-7.44441e-06
-8.71101e-06
0.000201295
-1.12746e-05
-2.59718e-06
0.000199312
-1.02604e-05
1.66143e-06
0.000201668
-9.4149e-06
1.63363e-06
0.000208145
-1.28956e-05
1.38169e-06
0.000215692
-1.20805e-05
2.31822e-06
0.000218013
-1.20671e-06
4.64669e-06
0.000215395
1.22784e-05
4.08998e-06
0.000213807
1.42308e-05
6.04485e-07
0.000214407
4.88986e-06
3.57762e-07
0.000213019
3.54584e-06
2.77155e-06
0.000209061
4.27604e-06
2.36985e-06
0.000206348
-1.05279e-06
3.95924e-08
0.000206698
-4.72753e-06
-9.74799e-07
0.000209601
-8.19767e-06
-2.41028e-06
0.000211213
1.41076e-07
-3.14829e-06
0.000206293
1.42663e-05
-1.8201e-06
0.000197837
1.11928e-05
-1.58851e-07
0.000193043
2.01013e-06
1.66574e-06
0.00019495
-7.87865e-06
2.1094e-06
0.000201106
-1.03984e-05
-5.02122e-07
0.000205116
-1.03648e-05
3.1347e-07
0.000208278
-1.73228e-05
4.51296e-06
0.000213419
-1.79585e-05
6.59544e-06
0.000215714
-8.16632e-06
4.93776e-06
0.000212113
9.4517e-06
2.52098e-06
0.000206304
1.69329e-05
5.37567e-07
0.000204737
2.65036e-06
-2.83074e-06
0.000208276
-8.24289e-06
-4.14635e-06
0.000209259
-2.66974e-06
-4.53383e-06
0.000204638
1.16089e-06
-4.30639e-06
0.000197735
6.77379e-06
-2.43204e-06
0.000192301
4.27348e-06
-3.07949e-06
0.000191061
-1.41766e-06
-3.00895e-06
0.000191466
3.05746e-06
1.44171e-06
0.000194819
-3.88216e-06
5.84898e-06
0.000200915
-1.92946e-05
6.61159e-06
0.000205585
-2.10491e-05
7.88024e-06
0.000208499
-4.11043e-06
7.12615e-06
0.000212512
9.86351e-06
1.3601e-06
0.000217489
1.67302e-05
-7.79482e-06
1.27542e-05
-9.57276e-06
0.000230424
1.37911e-05
-2.24061e-06
0.000223064
2.09967e-05
1.29458e-06
0.000220489
2.68338e-05
1.88847e-06
0.000219886
2.13134e-05
1.63423e-06
0.000220679
-5.0106e-06
1.57439e-06
0.000223789
-1.84245e-05
-1.70184e-06
0.000224795
1.05478e-06
-5.27259e-06
0.000223427
5.48539e-06
-7.55512e-06
0.000222368
-8.71091e-06
-7.99716e-06
0.000217702
-1.1501e-05
-3.4411e-06
0.000213294
-1.30392e-05
1.80249e-06
0.0002139
-1.5374e-05
4.66881e-06
0.000219375
-2.1325e-05
5.05219e-06
0.000227943
-2.11532e-05
3.9272e-06
0.000232944
-6.21334e-06
4.53066e-06
0.000233074
1.15417e-05
4.53609e-06
0.000232814
1.3516e-05
3.0356e-06
0.0002336
3.86954e-06
2.53118e-06
0.000232472
3.82301e-06
2.55691e-06
0.000229352
6.02974e-06
1.09489e-06
0.000226998
1.73281e-06
-3.85339e-07
0.000227437
-5.04766e-06
-2.35357e-07
0.000231864
-1.41807e-05
-1.03523e-06
0.000234329
-2.67975e-06
-2.42234e-06
0.000227087
2.28183e-05
-6.96729e-07
0.000214707
2.39828e-05
1.89517e-06
0.000206306
9.80468e-06
3.59399e-06
0.000206621
-8.82842e-06
3.65859e-06
0.000214919
-1.7282e-05
9.53731e-07
0.000223098
-1.52241e-05
7.47855e-07
0.000228332
-2.04417e-05
2.91522e-06
0.000232369
-2.30694e-05
4.25907e-06
0.000232297
-1.24747e-05
3.49841e-06
0.000226969
8.02379e-06
1.14403e-06
0.000221251
1.56791e-05
-9.02686e-07
0.000220543
-1.58973e-06
-2.66121e-06
0.000223712
-1.51582e-05
-2.86555e-06
0.000223901
-7.19786e-06
-2.3677e-06
0.000218843
1.09788e-06
-3.38138e-06
0.000211956
7.68993e-06
-4.07468e-06
0.000207081
4.1845e-06
-4.85061e-06
0.000205892
-5.75547e-07
-3.89978e-06
0.000204532
6.62403e-06
6.11319e-07
0.000205608
-5.46251e-06
4.80998e-06
0.000211183
-3.01095e-05
5.72177e-06
0.000217166
-3.59633e-05
6.53878e-06
0.0002232
-1.79372e-05
4.86559e-06
0.000231018
-2.03027e-06
-6.78912e-07
0.000238945
8.61568e-06
-7.14075e-06
1.25602e-05
-7.28823e-06
0.000252401
1.71582e-05
-1.45207e-06
0.000247638
2.66328e-05
1.10834e-06
0.000246659
2.95992e-05
2.03519e-06
0.0002457
2.29316e-05
1.45958e-06
0.000242828
-2.04174e-06
7.04858e-07
0.000241501
-1.65496e-05
-3.44565e-06
0.000242181
-4.81384e-07
-6.47765e-06
0.000244662
-1.68405e-07
-7.61678e-06
0.000247633
-1.41931e-05
-8.4212e-06
0.000242836
-1.16273e-05
-4.73408e-06
0.000235533
-1.36803e-05
1.92345e-06
0.000233585
-2.0258e-05
7.2853e-06
0.000237106
-2.84398e-05
7.36738e-06
0.000244486
-2.83188e-05
3.64031e-06
0.000249321
-9.98816e-06
2.48012e-06
0.000250129
1.04076e-05
3.33245e-06
0.00025044
1.15605e-05
4.68883e-06
0.000252712
1.90608e-06
4.27602e-06
0.000253764
3.85975e-06
1.52641e-06
0.000252411
7.84206e-06
-8.25747e-07
0.00025079
5.09e-06
-6.48961e-07
0.00024985
-4.03698e-06
1.89652e-06
0.000253076
-1.8416e-05
1.93365e-06
0.000255379
-4.44112e-06
-3.24236e-07
0.000248667
2.98998e-05
1.15507e-06
0.000237843
3.29263e-05
3.74946e-06
0.000229798
1.49014e-05
4.52183e-06
0.000227685
-8.11285e-06
3.50451e-06
0.000233321
-2.04838e-05
7.67453e-07
0.000240643
-1.725e-05
1.43314e-06
0.000244615
-1.91426e-05
3.35168e-06
0.000246345
-2.16238e-05
3.39014e-06
0.000245317
-1.187e-05
2.20983e-06
0.000241017
9.05601e-06
-6.2834e-07
0.000236751
1.46056e-05
-2.28838e-06
0.000236142
-5.87124e-06
-3.1147e-06
0.000237014
-2.11098e-05
-2.56153e-06
0.000236462
-1.35867e-05
-1.31513e-06
0.000234727
-3.83144e-06
-3.48892e-06
0.000231947
5.3648e-06
-6.62573e-06
0.00022914
4.54034e-06
-6.90281e-06
0.000228149
2.19824e-06
-3.58241e-06
0.000226028
1.13885e-05
2.88031e-06
0.000225046
-3.67781e-06
7.27739e-06
0.000228411
-3.58583e-05
6.017e-06
0.000233475
-4.74325e-05
3.32241e-06
0.000240368
-3.20554e-05
-1.97457e-07
0.000249219
-1.66307e-05
-4.45793e-06
0.000257818
-3.36263e-06
-7.51691e-06
7.90578e-06
-5.32061e-06
0.000275289