/*--------------------------------*- C++ -*----------------------------------*\
| =========                 |                                                 |
| \\      /  F ield         | OpenFOAM: The Open Source CFD Toolbox           |
|  \\    /   O peration     | Version:  2.3.0                                 |
|   \\  /    A nd           | Web:      www.OpenFOAM.org                      |
|    \\/     M anipulation  |                                                 |
\*---------------------------------------------------------------------------*/
FoamFile
{
    version     2.0;
    format      ascii;
    class       surfaceScalarField;
    location    "100";
    object      phi_0;
}
// * * * * * * * * * * * * * * * * * * * * * * * * * * * * * * * * * * * * * //

dimensions      [0 3 -1 0 0 0 0];

internalField   nonuniform List<scalar> 
263700
(
6.08591e-06
-1.26212e-07
8.99427e-08
6.01842e-06
-3.0515e-08
6.26272e-08
5.91267e-06
-4.46668e-08
9.21688e-08
5.76278e-06
-3.85796e-08
8.53042e-08
5.63446e-06
-1.23595e-07
5.30178e-09
5.62809e-06
-3.45586e-07
2.29474e-08
5.54267e-06
-2.9954e-07
2.20401e-08
5.3693e-06
-2.11397e-07
-1.75241e-10
5.26587e-06
-3.10436e-07
7.47072e-08
5.13687e-06
-2.72135e-07
1.45936e-07
4.95303e-06
-1.97717e-07
1.92922e-07
4.7382e-06
-2.14052e-07
2.56617e-07
4.55055e-06
-1.84305e-07
2.648e-07
4.37486e-06
-8.37295e-08
1.60425e-07
4.23009e-06
-5.94649e-08
1.54323e-08
4.26474e-06
-2.41447e-07
1.93244e-08
4.21473e-06
-1.47731e-07
7.8667e-08
4.15621e-06
-1.06524e-07
1.09717e-07
4.19963e-06
-1.93618e-07
1.45883e-07
4.18944e-06
-1.09925e-07
1.39795e-07
4.22017e-06
-6.91564e-08
1.01961e-07
4.24145e-06
6.4429e-08
4.74134e-08
4.30933e-06
7.11348e-08
-1.62441e-08
4.38732e-06
1.19804e-07
-8.70539e-08
4.48408e-06
1.78472e-07
-8.75642e-08
4.66859e-06
9.86457e-08
-2.07783e-08
4.73461e-06
2.05694e-07
1.13781e-08
4.80258e-06
1.63091e-07
1.59537e-08
4.87456e-06
6.14098e-08
3.42998e-08
4.86576e-06
5.4939e-08
1.0106e-08
4.93703e-06
-6.03725e-08
-1.13253e-07
4.90244e-06
6.96135e-08
-2.54055e-07
4.82575e-06
1.83095e-07
-4.08721e-07
4.85202e-06
1.28432e-07
-5.11072e-07
4.9591e-06
7.75883e-09
-4.77492e-07
5.16141e-06
-1.67839e-07
-3.60146e-07
5.2563e-06
-1.49946e-07
-1.99185e-07
5.24531e-06
-3.9558e-08
-4.82952e-08
5.2711e-06
-1.06753e-07
1.05218e-07
5.20171e-06
-4.07523e-08
2.2327e-07
5.20879e-06
-1.24411e-07
3.13652e-07
5.35786e-06
-2.55081e-07
3.63788e-07
5.37146e-06
-5.10426e-08
3.72868e-07
5.43076e-06
-1.1787e-08
2.94383e-07
5.66185e-06
-2.0688e-07
2.28645e-07
5.85894e-06
-2.26161e-07
1.71311e-07
5.95894e-06
-1.04656e-07
9.15098e-08
5.99506e-06
-3.04849e-08
2.91286e-08
5.98189e-06
1.07631e-08
-1.65105e-08
-8.72939e-08
2.57895e-08
1.99927e-05
-6.3559e-07
3.20638e-07
2.00182e-05
-4.58513e-07
2.39884e-07
1.98162e-05
-4.78944e-07
3.87376e-07
1.94947e-05
-4.68648e-07
4.12771e-07
1.92674e-05
-7.12473e-07
1.34978e-07
1.90953e-05
-1.14886e-06
7.90725e-08
1.87678e-05
-9.49995e-07
-3.43374e-08
1.8397e-05
-7.0113e-07
-2.02947e-07
1.80048e-05
-8.76357e-07
1.95878e-08
1.74495e-05
-7.11708e-07
2.83568e-07
1.67943e-05
-5.85468e-07
4.84374e-07
1.60452e-05
-6.4347e-07
6.87084e-07
1.53468e-05
-5.14109e-07
7.0835e-07
1.47727e-05
-2.75436e-07
4.44155e-07
1.43663e-05
-2.97908e-07
1.10284e-07
1.42124e-05
-7.14025e-07
1.48444e-07
1.39656e-05
-4.31071e-07
2.42972e-07
1.38077e-05
-3.59373e-07
2.79323e-07
1.37916e-05
-4.89183e-07
3.19346e-07
1.37118e-05
-2.60247e-07
2.90557e-07
1.375e-05
-1.31693e-07
1.83335e-07
1.38497e-05
2.44929e-07
5.42809e-08
1.40511e-05
2.99939e-07
-1.00914e-07
1.42857e-05
4.5582e-07
-1.98982e-07
1.46124e-05
5.81221e-07
-1.25462e-07
1.50271e-05
4.29246e-07
2.41528e-09
1.53122e-05
6.55513e-07
1.69896e-08
1.56448e-05
4.58284e-07
1.31315e-08
1.58819e-05
2.03852e-07
1.55914e-08
1.59927e-05
1.05742e-07
-1.01919e-07
1.61459e-05
-1.44772e-07
-3.77811e-07
1.6072e-05
1.95063e-07
-6.69422e-07
1.59616e-05
4.26392e-07
-1.03274e-06
1.60916e-05
2.53814e-07
-1.33384e-06
1.63876e-05
-4.96625e-08
-1.33398e-06
1.67859e-05
-4.30361e-07
-1.07275e-06
1.70397e-05
-3.68365e-07
-7.16275e-07
1.71213e-05
-1.42272e-07
-2.56323e-07
1.71925e-05
-2.42787e-07
1.23017e-07
1.71396e-05
-1.49751e-07
4.72735e-07
1.71969e-05
-3.96212e-07
7.66251e-07
1.74067e-05
-6.34482e-07
9.17379e-07
1.75496e-05
-2.23497e-07
9.70751e-07
1.78549e-05
-2.62298e-07
8.60511e-07
1.83762e-05
-7.5579e-07
8.02996e-07
1.88174e-05
-7.84176e-07
6.70183e-07
1.91215e-05
-4.85335e-07
4.8723e-07
1.93635e-05
-3.28562e-07
3.34827e-07
1.95194e-05
-2.52979e-07
1.65183e-07
-4.73953e-07
1.91053e-07
3.6064e-05
-1.61837e-06
6.48638e-07
3.66581e-05
-1.51336e-06
3.94511e-07
3.67416e-05
-1.46932e-06
5.80811e-07
3.64196e-05
-1.43763e-06
9.49981e-07
3.6186e-05
-1.84014e-06
6.19437e-07
3.58694e-05
-2.36984e-06
3.94665e-07
3.53082e-05
-1.95871e-06
1.4496e-07
3.48706e-05
-1.46387e-06
-4.78575e-07
3.43872e-05
-1.59154e-06
-4.76328e-07
3.35948e-05
-1.17251e-06
-8.612e-08
3.26154e-05
-1.03712e-06
3.48488e-07
3.13006e-05
-1.1445e-06
8.37973e-07
2.98214e-05
-8.44178e-07
1.1508e-06
2.85481e-05
-4.69076e-07
9.40174e-07
2.759e-05
-5.72267e-07
3.63832e-07
2.68788e-05
-1.23538e-06
3.09168e-07
2.61481e-05
-7.91118e-07
4.24367e-07
2.56376e-05
-7.40498e-07
4.61007e-07
2.53727e-05
-9.05734e-07
4.92816e-07
2.50807e-05
-4.77973e-07
4.72764e-07
2.49453e-05
-2.79661e-07
3.29242e-07
2.50071e-05
3.67589e-07
1.34323e-07
2.52545e-05
5.52749e-07
-1.32535e-07
2.55871e-05
8.77566e-07
-3.38626e-07
2.60876e-05
1.12984e-06
-2.04887e-07
2.66829e-05
1.00234e-06
2.93333e-08
2.72003e-05
1.38834e-06
3.41087e-08
2.78932e-05
9.94757e-07
4.83348e-09
2.85074e-05
4.91527e-07
3.46767e-08
2.89448e-05
1.85538e-07
-1.06498e-07
2.9326e-05
-2.52599e-07
-4.37674e-07
2.93782e-05
2.91294e-07
-7.69695e-07
2.92071e-05
6.89509e-07
-1.2482e-06
2.92163e-05
4.96392e-07
-1.85757e-06
2.94802e-05
2.96495e-08
-2.19834e-06
2.99215e-05
-5.75665e-07
-2.02808e-06
3.03858e-05
-5.47969e-07
-1.71144e-06
3.07036e-05
-3.01307e-07
-1.07504e-06
3.09641e-05
-4.07925e-07
-4.596e-07
3.11112e-05
-2.33863e-07
5.88744e-08
3.12351e-05
-7.06416e-07
7.00165e-07
3.13574e-05
-9.52427e-07
1.10363e-06
3.15502e-05
-3.69521e-07
1.30304e-06
3.19997e-05
-5.54128e-07
1.24578e-06
3.26365e-05
-1.38939e-06
1.35664e-06
3.32516e-05
-1.52714e-06
1.32428e-06
3.37701e-05
-1.0895e-06
1.11758e-06
3.43343e-05
-9.5787e-07
9.96439e-07
3.48383e-05
-8.661e-07
6.80566e-07
-1.15941e-06
5.14608e-07
5.24923e-05
-2.80433e-06
1.2951e-06
5.38983e-05
-3.02062e-06
7.15464e-07
5.48855e-05
-3.02323e-06
4.38028e-07
5.50825e-05
-3.02707e-06
1.19385e-06
5.51101e-05
-3.59832e-06
1.27437e-06
5.48547e-05
-4.07265e-06
1.07155e-06
5.40833e-05
-3.32318e-06
8.78444e-07
5.35831e-05
-2.56654e-06
-1.7473e-07
5.33405e-05
-2.53256e-06
-1.0997e-06
5.28487e-05
-1.76581e-06
-9.87747e-07
5.21846e-05
-1.52851e-06
-5.34224e-07
5.09478e-05
-1.6805e-06
1.34339e-07
4.89535e-05
-1.19004e-06
1.08058e-06
4.68484e-05
-6.52869e-07
1.47198e-06
4.51221e-05
-7.77969e-07
8.31756e-07
4.34815e-05
-1.54005e-06
5.50615e-07
4.17704e-05
-9.63084e-07
6.33973e-07
4.04137e-05
-1.09327e-06
6.77093e-07
3.94714e-05
-1.39562e-06
7.03827e-07
3.86519e-05
-7.97547e-07
7.10437e-07
3.80217e-05
-5.89418e-07
5.77094e-07
3.77467e-05
2.04945e-07
3.64196e-07
3.78111e-05
4.90505e-07
6.91511e-08
3.80806e-05
1.03521e-06
-4.20413e-07
3.8652e-05
1.4502e-06
-3.86347e-07
3.9357e-05
1.48891e-06
6.12474e-08
3.99579e-05
2.26665e-06
1.66955e-07
4.08657e-05
1.89571e-06
5.30947e-08
4.1911e-05
1.18054e-06
1.22106e-07
4.29006e-05
5.06679e-07
-2.27618e-09
4.37598e-05
-2.5562e-07
-3.78875e-07
4.42763e-05
3.54919e-07
-6.11653e-07
4.43445e-05
8.3428e-07
-9.3342e-07
4.41373e-05
8.17662e-07
-1.63463e-06
4.40263e-05
3.6013e-07
-2.49389e-06
4.40841e-05
-3.64311e-07
-2.73502e-06
4.44266e-05
-3.19394e-07
-2.84398e-06
4.49032e-05
-1.88664e-07
-2.52728e-06
4.54162e-05
-4.36921e-07
-1.86746e-06
4.60052e-05
-3.29351e-07
-1.22269e-06
4.66043e-05
-1.00238e-06
-4.02991e-07
4.6845e-05
-1.19347e-06
4.16211e-07
4.7021e-05
-3.08177e-07
9.7727e-07
4.75244e-05
-6.07061e-07
9.94626e-07
4.80556e-05
-1.69843e-06
1.31447e-06
4.85913e-05
-1.98912e-06
1.66379e-06
4.90899e-05
-1.42306e-06
1.57601e-06
4.97417e-05
-1.45718e-06
1.71427e-06
5.05523e-05
-1.66598e-06
1.61816e-06
-2.01395e-06
1.23256e-06
6.77616e-05
-3.63085e-06
2.38223e-06
6.95759e-05
-4.2998e-06
1.68353e-06
7.14899e-05
-4.58656e-06
4.31493e-07
7.27023e-05
-4.95952e-06
8.41579e-07
7.34077e-05
-5.80727e-06
1.34101e-06
7.35495e-05
-6.10677e-06
1.4598e-06
7.27725e-05
-4.80155e-06
1.64437e-06
7.20383e-05
-3.66226e-06
8.19503e-07
7.1972e-05
-3.57145e-06
-1.00151e-06
7.21213e-05
-2.42618e-06
-2.02282e-06
7.23394e-05
-1.95312e-06
-1.87597e-06
7.21851e-05
-2.32522e-06
-1.31993e-06
7.09523e-05
-1.76855e-06
-1.86601e-07
6.88498e-05
-1.12462e-06
1.20758e-06
6.68858e-05
-1.25214e-06
1.1301e-06
6.46872e-05
-1.78237e-06
8.33104e-07
6.20135e-05
-7.72104e-07
8.4659e-07
5.94838e-05
-1.03319e-06
8.20307e-07
5.73108e-05
-1.59603e-06
8.31613e-07
5.5472e-05
-8.98009e-07
8.86586e-07
5.38814e-05
-6.48949e-07
7.92414e-07
5.27855e-05
5.6374e-08
5.97529e-07
5.21956e-05
1.91397e-07
4.52581e-07
5.19747e-05
7.85838e-07
-1.38702e-07
5.23185e-05
1.17825e-06
-5.28318e-07
5.30145e-05
1.20855e-06
-2.17076e-11
5.35908e-05
2.49012e-06
4.52726e-07
5.44145e-05
2.52619e-06
3.46721e-07
5.55243e-05
2.14746e-06
3.9837e-07
5.68998e-05
1.43245e-06
2.68619e-07
5.82508e-05
3.47582e-07
-3.20494e-07
5.94254e-05
8.54435e-07
-5.33039e-07
6.03883e-05
8.43172e-07
-5.05335e-07
6.0589e-05
8.08126e-07
-7.5756e-07
6.02266e-05
6.42797e-07
-1.82374e-06
5.95716e-05
1.45175e-07
-2.53342e-06
5.91308e-05
6.38861e-07
-3.114e-06
5.9148e-05
7.95779e-07
-3.59196e-06
5.94341e-05
3.7058e-07
-3.54893e-06
6.01212e-05
3.18325e-07
-3.24316e-06
6.13596e-05
-1.02178e-06
-2.43034e-06
6.23802e-05
-1.50288e-06
-1.36566e-06
6.30248e-05
-1.72534e-07
-3.47576e-07
6.38782e-05
-4.9642e-07
-6.36098e-08
6.44362e-05
-1.67059e-06
2.32228e-07
6.47536e-05
-1.86931e-06
9.67853e-07
6.50354e-05
-1.00985e-06
1.19852e-06
6.53425e-05
-9.78869e-07
1.63025e-06
6.59022e-05
-1.81303e-06
2.28304e-06
-2.51895e-06
2.22175e-06
8.20684e-05
-3.30927e-06
3.29822e-06
8.36068e-05
-4.62452e-06
3.20614e-06
8.58326e-05
-5.37208e-06
1.2489e-06
8.78403e-05
-6.42366e-06
6.37921e-07
8.93297e-05
-7.89246e-06
7.988e-07
8.99408e-05
-7.91546e-06
1.11305e-06
8.92987e-05
-5.73876e-06
1.60745e-06
8.828e-05
-3.90315e-06
1.41245e-06
8.80147e-05
-3.90352e-06
-3.84758e-07
8.86582e-05
-2.74778e-06
-2.68707e-06
8.97952e-05
-1.90492e-06
-3.30245e-06
9.0827e-05
-2.46e-06
-2.82485e-06
9.10879e-05
-2.2522e-06
-2.00959e-06
9.00057e-05
-1.84788e-06
-1.67329e-07
8.87301e-05
-2.20402e-06
4.75226e-07
8.71201e-05
-2.56913e-06
6.52309e-07
8.47862e-05
-9.58751e-07
9.98819e-07
8.21891e-05
-9.40298e-07
8.43389e-07
7.92905e-05
-1.48033e-06
5.78982e-07
7.65207e-05
-6.17781e-07
5.74789e-07
7.38284e-05
2.01734e-09
6.78558e-07
7.15792e-05
7.53633e-07
4.6468e-07
6.98715e-05
3.6442e-07
5.49673e-07
6.85488e-05
6.25472e-07
3.50497e-07
6.79699e-05
7.87013e-07
-2.33157e-07
6.8071e-05
5.44828e-07
-1.86478e-07
6.8337e-05
1.76602e-06
5.87196e-07
6.88888e-05
1.74324e-06
9.03241e-07
6.97475e-05
1.85017e-06
1.03309e-06
7.10762e-05
2.04311e-06
1.03296e-06
7.2488e-05
1.53327e-06
1.50438e-07
7.3766e-05
2.50925e-06
-4.02957e-07
7.5561e-05
1.81577e-06
-3.98062e-07
7.7036e-05
6.23402e-07
6.27305e-08
7.74109e-05
1.81888e-07
-5.03773e-07
7.65351e-05
3.4882e-07
-1.59958e-06
7.52231e-05
1.92455e-06
-2.25031e-06
7.4369e-05
2.53025e-06
-3.0495e-06
7.38391e-05
2.16937e-06
-3.88735e-06
7.37399e-05
2.32381e-06
-4.61506e-06
7.46218e-05
5.56379e-07
-4.50519e-06
7.6087e-05
-8.42438e-07
-3.74343e-06
7.74991e-05
3.76846e-07
-2.40506e-06
7.9151e-05
-8.15385e-08
-1.64971e-06
8.03694e-05
-1.47473e-06
-1.51636e-06
8.10102e-05
-1.51295e-06
-8.68567e-07
8.15111e-05
-3.12005e-07
-3.09975e-07
8.17121e-05
3.56069e-07
2.71319e-07
8.1723e-05
-6.38558e-07
1.56427e-06
-1.8573e-06
2.48242e-06
9.69326e-05
-1.55314e-06
2.94104e-06
9.74311e-05
-3.37201e-06
4.19531e-06
9.93456e-05
-4.99968e-06
2.56136e-06
0.000101605
-7.04045e-06
1.1762e-06
0.000103655
-9.46164e-06
4.53584e-07
0.000104648
-9.15766e-06
3.9377e-07
0.000103964
-5.55343e-06
1.08395e-06
0.000102537
-2.86691e-06
1.57023e-06
0.000101729
-2.82263e-06
4.41776e-07
0.000102382
-2.14924e-06
-2.70207e-06
0.000104125
-1.10893e-06
-4.57391e-06
0.000105887
-1.61362e-06
-3.98209e-06
0.000107413
-1.90454e-06
-3.36306e-06
0.000107501
-2.1459e-06
-1.62556e-06
0.000106931
-2.97745e-06
-7.80886e-07
0.000105939
-3.33476e-06
-4.40443e-07
0.000104209
-1.40019e-06
7.2103e-07
0.00010257
-1.21745e-06
9.76835e-07
0.000100651
-1.74347e-06
1.52971e-07
9.87167e-05
-8.84759e-07
-5.88833e-07
9.64025e-05
4.68037e-07
-4.40086e-07
9.40157e-05
2.08389e-06
-3.60888e-07
9.17577e-05
1.60962e-06
-2.59602e-07
8.94049e-05
1.2842e-06
4.64557e-08
8.75458e-05
7.90625e-07
1.86272e-07
8.6293e-05
3.36104e-07
-6.58807e-08
8.54819e-05
1.53467e-06
2.98197e-07
8.50869e-05
7.65007e-07
1.18788e-06
8.5104e-05
2.20745e-08
1.67265e-06
8.60701e-05
6.16944e-07
1.92451e-06
8.74332e-05
1.36458e-06
1.11496e-06
8.82915e-05
4.18814e-06
4.96012e-07
8.97489e-05
4.33479e-06
1.42473e-07
9.19932e-05
2.04757e-06
3.80801e-07
9.38642e-05
-3.7872e-07
7.07986e-07
9.38455e-05
-3.84408e-07
-2.65297e-07
9.22827e-05
2.81317e-06
-1.13245e-06
9.08981e-05
4.2982e-06
-1.50115e-06
8.97386e-05
4.09088e-06
-2.2127e-06
8.8767e-05
4.62656e-06
-3.63324e-06
8.85866e-05
3.15731e-06
-4.62045e-06
8.92374e-05
1.60142e-06
-5.17666e-06
9.05191e-05
2.58091e-06
-4.75675e-06
9.2537e-05
1.68792e-06
-3.57437e-06
9.42423e-05
-3.04341e-07
-2.88397e-06
9.53767e-05
-2.54749e-07
-2.74972e-06
9.67138e-05
7.85374e-07
-2.60539e-06
9.78465e-05
1.5875e-06
-2.01035e-06
9.82526e-05
7.66677e-07
-4.02522e-07
-3.57815e-07
1.21611e-06
0.000112912
3.63705e-07
1.22081e-06
0.000112093
-5.78079e-07
3.64967e-06
0.000113151
-3.04185e-06
3.08742e-06
0.000115344
-6.80763e-06
1.67176e-06
0.000117779
-1.08098e-05
4.66874e-07
0.000119249
-1.02584e-05
-5.03097e-07
0.00011861
-4.75592e-06
1.74238e-07
0.000116739
-9.51184e-07
1.72722e-06
0.000115087
-1.00855e-06
2.21255e-06
0.000115203
-6.70901e-07
-1.08241e-06
0.000117268
9.51961e-08
-4.74153e-06
0.000119261
-1.17035e-07
-4.49191e-06
0.000121264
-6.85306e-07
-3.7306e-06
0.000122244
-1.68987e-06
-2.21617e-06
0.000122154
-3.11653e-06
-1.40727e-06
0.000121516
-3.52591e-06
-1.59482e-06
0.000119833
-1.30312e-06
-2.26418e-07
0.000118068
-8.80298e-07
1.04081e-06
0.000116408
-1.51159e-06
3.23017e-07
0.000115567
-1.36369e-06
-1.73115e-06
0.000114873
1.02265e-07
-2.75081e-06
0.000114243
2.61213e-06
-2.43927e-06
0.000113739
2.62652e-06
-2.00377e-06
0.000112495
2.38143e-06
-1.93935e-06
0.000110804
1.05564e-06
-8.37186e-07
0.000108602
2.77178e-07
1.3613e-07
0.000106547
1.8742e-06
2.924e-08
0.00010494
9.42386e-07
7.98196e-07
0.000103197
-7.95024e-07
1.96848e-06
0.000102542
-9.89405e-07
2.43567e-06
0.000103375
-1.60147e-07
1.42625e-06
0.000104095
3.92551e-06
1.13637e-06
0.000104837
6.33196e-06
1.29105e-06
0.000106469
5.22827e-06
1.08319e-06
0.000109102
6.75598e-07
1.73077e-06
0.00011047
-1.64521e-06
1.44665e-06
0.000109354
2.91826e-06
3.25049e-08
0.000107791
5.82773e-06
-3.74663e-07
0.000106353
6.07932e-06
-5.4019e-07
0.000105078
6.50966e-06
-1.46379e-06
0.000104508
4.73534e-06
-2.01916e-06
0.000104189
3.94677e-06
-3.4341e-06
0.000104429
6.05548e-06
-5.50939e-06
0.000106107
4.94626e-06
-5.63244e-06
0.000107766
1.84633e-06
-4.08529e-06
0.000108579
2.34522e-06
-3.59101e-06
0.000109975
3.87756e-06
-4.25732e-06
0.00011197
3.90268e-06
-3.92516e-06
0.000113571
2.36003e-06
-2.75503e-06
4.69049e-07
-6.48828e-07
0.00012882
1.31914e-06
-9.09494e-08
0.000127392
2.76777e-06
2.15335e-06
0.000127238
1.13395e-06
2.25482e-06
0.000128968
-4.76614e-06
9.22829e-07
0.000131668
-1.15738e-05
-4.04951e-07
0.000133874
-1.14978e-05
-1.88391e-06
0.000133975
-4.49078e-06
-1.69013e-06
0.000132337
5.30918e-07
7.44422e-07
0.000129935
5.82647e-07
3.82937e-06
0.00012883
1.01133e-06
1.7793e-06
0.000130869
1.35611e-06
-3.22859e-06
0.00013319
1.27935e-06
-4.02607e-06
0.000135039
7.76815e-07
-3.07205e-06
0.000136257
-7.4454e-07
-1.86979e-06
0.000136393
-2.56497e-06
-1.16051e-06
0.000135913
-2.8527e-06
-2.00949e-06
0.000134211
-4.7837e-07
-1.07966e-06
0.000131786
2.82883e-07
8.79807e-07
0.000129157
-1.02285e-07
9.00394e-07
0.000127979
-9.66492e-07
-1.7906e-06
0.000127751
2.26857e-09
-4.71079e-06
0.000128
3.0145e-06
-5.36576e-06
0.000129218
3.00951e-06
-4.08043e-06
0.00013051
2.78823e-06
-4.14086e-06
0.000131733
5.13091e-07
-3.92482e-06
0.000131349
-1.11958e-06
-1.15208e-06
0.000129507
1.33606e-06
-2.10948e-07
0.000127659
1.16173e-06
3.26621e-08
0.000124851
-7.30468e-07
1.90082e-06
0.000121985
-1.37843e-06
3.34828e-06
0.000120905
-3.63076e-07
1.44905e-06
0.000120827
3.74588e-06
3.32379e-07
0.000120936
6.96959e-06
1.71391e-06
0.000121557
8.16371e-06
1.77737e-06
0.000123968
3.29633e-06
1.92075e-06
0.000126432
-2.45294e-06
2.91107e-06
0.000126314
1.70357e-06
2.02842e-06
0.000124977
6.05019e-06
1.02155e-06
0.000123197
7.71382e-06
5.18201e-07
0.000121426
9.08055e-06
-9.51941e-07
0.000120923
5.83901e-06
-4.44214e-07
0.000120637
4.57654e-06
3.98588e-07
0.000120299
8.43651e-06
-2.55542e-06
0.000121506
8.5593e-06
-5.9701e-06
0.000122971
4.31939e-06
-5.35792e-06
0.000122976
4.81147e-06
-3.96394e-06
0.00012341
7.96532e-06
-5.17662e-06
0.000125292
7.95247e-06
-5.15534e-06
0.000127432
5.42833e-06
-3.86577e-06
1.51289e-06
-1.70557e-06
0.000144183
1.47422e-06
4.99085e-07
0.000142815
5.35771e-06
2.00852e-06
0.000141749
6.77637e-06
1.57331e-06
0.000142748
4.24046e-07
-7.06856e-07
0.000145386
-9.94886e-06
-2.53529e-06
0.000147995
-1.1682e-05
-4.11013e-06
0.000149171
-4.72699e-06
-4.56025e-06
0.000148946
-7.74623e-09
-2.13823e-06
0.000146855
2.37459e-07
3.33137e-06
0.000144342
1.85985e-06
4.37431e-06
0.000145615
2.2993e-06
-1.0859e-06
0.000148484
2.11098e-06
-3.14755e-06
0.000150387
1.76847e-06
-1.8478e-06
0.000151231
3.96941e-07
-7.00627e-07
0.000150974
-1.37452e-06
-2.72275e-07
0.000150309
-1.14606e-06
-1.75446e-06
0.000148798
1.22527e-06
-1.68792e-06
0.000146158
1.80641e-06
7.46554e-07
0.000142444
1.96728e-06
1.72054e-06
0.000140192
1.51455e-07
-7.01981e-07
0.000139557
-4.31866e-08
-4.44481e-06
0.000139439
3.4705e-06
-7.02414e-06
0.000140574
3.52372e-06
-5.91601e-06
0.000142529
3.32826e-06
-5.08373e-06
0.000145815
-1.79088e-07
-6.48495e-06
0.000148623
-3.91754e-06
-4.09429e-06
0.000149108
-1.09982e-06
-1.29145e-06
0.000148683
1.01428e-07
-1.26744e-06
0.000146727
-1.28351e-06
7.96978e-07
0.00014327
-2.16941e-06
4.73273e-06
0.000140615
2.18439e-08
3.21174e-06
0.000139097
5.24075e-06
-5.32607e-07
0.000137758
8.37599e-06
7.49725e-07
0.000136609
1.09701e-05
1.93749e-06
0.000138046
6.60052e-06
7.35308e-07
0.000141325
-2.21276e-06
1.44979e-06
0.000142722
4.29997e-08
2.21677e-06
0.000142412
4.28556e-06
2.01963e-06
0.000140879
6.80589e-06
2.47311e-06
0.000138438
1.08684e-05
-4.18662e-07
0.000137381
7.48651e-06
-1.66644e-06
0.000137148
4.14786e-06
2.18042e-06
0.000136851
8.76106e-06
1.83779e-06
0.000138199
1.03804e-05
-3.08221e-06
0.000140128
6.035e-06
-5.11093e-06
0.00013972
6.36594e-06
-3.51876e-06
0.000138617
1.17002e-05
-5.40494e-06
0.000139454
1.24166e-05
-6.8404e-06
0.000141454
9.16674e-06
-5.36706e-06
2.93315e-06
-1.72473e-06
0.000159461
8.71838e-07
1.2612e-06
0.000157972
6.53025e-06
3.51061e-06
0.000156334
1.16828e-05
2.88382e-06
0.000156916
6.45094e-06
1.6906e-07
0.000159731
-6.60263e-06
-2.85538e-06
0.000162358
-9.80912e-06
-5.58443e-06
0.000163638
-3.38927e-06
-7.30077e-06
0.000164686
-1.75903e-06
-6.11388e-06
0.000164148
-3.20538e-06
2.68644e-07
0.000161255
2.8988e-07
4.80937e-06
0.000161357
2.36969e-06
4.02173e-07
0.000164611
2.05317e-06
-2.5956e-06
0.000167393
1.63716e-06
-1.11922e-06
0.000168091
1.1031e-06
7.09062e-07
0.000166742
4.78763e-07
1.19068e-06
0.000165097
1.9274e-06
-1.0347e-06
0.000163814
3.95547e-06
-2.20261e-06
0.000161896
3.14495e-06
5.05199e-07
0.000157806
3.63919e-06
2.67693e-06
0.000154432
1.44655e-06
7.70629e-07
0.000153354
-8.88137e-07
-2.29667e-06
0.000152868
2.73913e-06
-5.97073e-06
0.000153205
3.50588e-06
-6.35473e-06
0.000154294
4.28976e-06
-4.76505e-06
0.000157038
4.94736e-07
-6.60026e-06
0.000160957
-6.12168e-06
-5.98748e-06
0.000163601
-4.3313e-06
-2.53825e-06
0.000165023
-2.011e-06
-2.48811e-06
0.000164678
-2.3787e-06
-1.57887e-06
0.000162303
-4.14687e-06
4.60548e-06
0.000160226
-1.79819e-06
6.46024e-06
0.000158994
5.58914e-06
1.27219e-06
0.000156905
9.74044e-06
7.69677e-08
0.000153503
1.40518e-05
1.78558e-06
0.00015242
1.07031e-05
-4.83153e-07
0.000155194
-6.9583e-07
-2.11857e-06
0.000157977
-7.48836e-07
-1.06834e-06
0.000159197
2.58399e-06
-5.71616e-07
0.000158707
3.63955e-06
2.48762e-06
0.000156225
9.84812e-06
1.18498e-06
0.000154462
7.66557e-06
-2.54446e-06
0.000153966
3.32554e-06
9.17493e-07
0.000153488
7.60289e-06
4.48091e-06
0.000154859
9.53277e-06
1.28061e-06
0.000157629
5.25867e-06
-2.55291e-06
0.000157957
5.86011e-06
-1.32177e-06
0.000156128
1.40455e-05
-3.50988e-06
0.000155644
1.67785e-05
-7.74481e-06
0.000156887
1.3242e-05
-8.31769e-06
4.17604e-06
-3.57338e-06
0.000175302
4.28682e-07
3.5178e-07
0.000173107
7.33179e-06
4.37167e-06
0.0001707
1.56591e-05
4.53377e-06
0.000170585
1.13045e-05
2.96031e-06
0.000173856
-5.01905e-06
5.54896e-07
0.000177365
-8.96381e-06
-3.81384e-06
0.00017829
-2.35486e-07
-7.92038e-06
0.000178668
-1.38698e-06
-9.27463e-06
0.000178997
-7.40585e-06
-3.98046e-06
0.000176891
-4.1798e-06
3.04766e-06
0.00017641
-1.57252e-07
1.35974e-06
0.000179881
3.43316e-07
-2.10624e-06
0.000184328
-5.92155e-07
-1.08807e-06
0.000186158
1.27311e-07
1.60849e-06
0.000183966
2.43095e-06
2.86509e-06
0.00018063
6.36339e-06
3.08375e-07
0.000179232
7.65005e-06
-2.41758e-06
0.000178719
3.89448e-06
-2.13877e-08
0.000175332
4.15806e-06
3.32919e-06
0.000171062
2.26846e-06
2.25614e-06
0.000169372
-2.17831e-06
-3.73793e-07
0.000169081
2.78326e-07
-3.54547e-06
0.000169277
1.66972e-06
-5.15843e-06
0.000169568
4.61478e-06
-3.79692e-06
0.000170163
2.97701e-06
-4.78392e-06
0.000172183
-5.43808e-06
-5.25645e-06
0.000175046
-6.23016e-06
-2.44337e-06
0.000177736
-4.31207e-06
-2.37517e-06
0.000178698
-3.41003e-06
-3.31745e-06
0.000177266
-5.9995e-06
2.64914e-06
0.000176719
-6.15148e-06
8.12736e-06
0.000177967
1.60139e-06
4.90073e-06
0.000177589
8.06303e-06
1.31555e-06
0.00017363
1.54098e-05
2.05004e-06
0.00016982
1.44219e-05
-9.7595e-08
0.000170416
1.40913e-06
-3.84253e-06
0.000173404
-1.40588e-06
-4.21883e-06
0.000175352
1.34006e-06
-4.10559e-06
0.000175391
9.06255e-07
-8.8014e-07
0.000172944
7.22506e-06
1.29824e-06
0.000170469
6.04023e-06
-2.27991e-06
0.000169932
1.26165e-06
-7.54609e-07
0.000169926
5.1565e-06
4.83235e-06
0.000171592
5.93959e-06
4.97624e-06
0.000174795
6.30902e-07
1.58183e-06
0.000176058
1.78056e-06
2.35152e-06
0.000174801
1.31686e-05
6.32672e-07
0.000174142
1.93988e-05
-5.92281e-06
0.000174877
1.73281e-05
-1.04813e-05
6.23529e-06
-6.92015e-06
0.000191982
2.24659e-06
-1.10381e-06
0.000188175
9.7145e-06
4.28735e-06
0.000185295
1.95641e-05
5.08855e-06
0.000184507
1.50844e-05
4.54442e-06
0.000187709
-5.65607e-06
3.66861e-06
0.00019255
-1.13312e-05
-5.23275e-07
0.000193687
2.14682e-06
-6.40864e-06
0.000192048
1.77672e-06
-1.02664e-05
0.00019112
-8.9967e-06
-7.19511e-06
0.000189239
-8.93423e-06
3.5356e-07
0.000188681
-5.11005e-06
1.802e-06
0.000192306
-3.80454e-06
-8.53016e-07
0.000198522
-5.60797e-06
-6.49492e-07
0.000202962
-3.86303e-06
1.95627e-06
0.000201624
3.00946e-06
4.20408e-06
0.000197331
1.09897e-05
2.10352e-06
0.000195599
1.15348e-05
-1.75256e-06
0.00019612
4.17281e-06
-3.22814e-07
0.000193917
3.66945e-06
3.37978e-06
0.000189488
2.73233e-06
2.78014e-06
0.000187209
-2.81435e-06
1.28275e-07
0.000187318
-2.86516e-06
-1.8303e-06
0.000188383
-2.14747e-06
-3.64018e-06
0.000188726
3.70295e-06
-3.15112e-06
0.000186474
7.54627e-06
-2.83621e-06
0.000184036
-2.74537e-07
-2.6924e-06
0.000184495
-4.89802e-06
-5.46817e-07
0.000187552
-6.60607e-06
-4.91743e-07
0.000190306
-5.32007e-06
-2.75266e-06
0.000190225
-7.56272e-06
1.06626e-06
0.000191284
-1.19966e-05
7.34765e-06
0.000195286
-7.1074e-06
7.29805e-06
0.000197135
1.85617e-06
3.74567e-06
0.000193763
1.39693e-05
2.59296e-06
0.000188634
1.63905e-05
7.13191e-07
0.000187621
2.43092e-06
-3.58804e-06
0.000190765
-3.57991e-06
-5.08829e-06
0.000192204
1.45766e-07
-5.62659e-06
0.000190261
1.72759e-07
-3.52604e-06
0.000186058
5.91893e-06
-5.271e-07
0.000182168
4.41806e-06
-2.25014e-06
0.000181467
-7.10703e-07
-1.72167e-06
0.000182447
2.80711e-06
3.85021e-06
0.00018572
6.70866e-08
6.76669e-06
0.000190268
-8.26999e-06
5.30275e-06
0.000192667
-6.67864e-06
6.0923e-06
0.000192856
8.02427e-06
4.87549e-06
0.000193792
1.80757e-05
-2.27418e-06
0.000195655
1.9305e-05
-1.02062e-05
9.27872e-06
-9.27768e-06
0.000209634
7.46268e-06
-1.85766e-06
0.000203658
1.50279e-05
3.20565e-06
0.000200911
2.35304e-05
3.95957e-06
0.000200237
1.76037e-05
3.6599e-06
0.000202922
-7.22704e-06
3.51132e-06
0.000208058
-1.54748e-05
2.01245e-07
0.000209232
2.97419e-06
-5.23936e-06
0.000206382
4.86808e-06
-9.2041e-06
0.000204037
-8.78233e-06
-8.16519e-06
0.000200922
-1.15129e-05
-1.81746e-06
0.000199415
-1.02707e-05
1.97103e-06
0.000202467
-9.73327e-06
1.59864e-06
0.000209349
-1.30474e-05
1.43776e-06
0.000216493
-1.09409e-05
2.5925e-06
0.000217941
9.21817e-07
4.77959e-06
0.00021503
1.34948e-05
3.73825e-06
0.000213734
1.35181e-05
3.18437e-07
0.000214314
4.02234e-06
5.56512e-07
0.000212555
3.49505e-06
2.91663e-06
0.000208523
3.78869e-06
2.10424e-06
0.000206165
-1.93456e-06
-1.65732e-07
0.000206995
-5.35865e-06
-1.19123e-06
0.000209986
-7.65505e-06
-2.61604e-06
0.000210925
2.17242e-06
-3.10381e-06
0.000205215
1.51484e-05
-1.56585e-06
0.000196802
1.00728e-05
9.95207e-08
0.000192874
3.86785e-07
1.84191e-06
0.000195648
-8.90054e-06
1.94024e-06
0.000201947
-1.05742e-05
-6.52416e-07
0.000205714
-1.09178e-05
7.34702e-07
0.000208969
-1.78639e-05
5.03108e-06
0.000213988
-1.70839e-05
6.62973e-06
0.000215518
-5.85434e-06
4.60266e-06
0.000211279
1.14118e-05
2.15378e-06
0.000205764
1.62697e-05
-2.82766e-08
0.000204952
5.18196e-07
-3.16318e-06
0.000208636
-8.60024e-06
-4.26533e-06
0.000208905
-1.9169e-06
-4.51542e-06
0.000203646
1.79338e-06
-4.11649e-06
0.000196717
6.94473e-06
-2.3502e-06
0.000191771
3.61468e-06
-3.11621e-06
0.000191014
-1.60303e-06
-2.62305e-06
0.000191798
2.74389e-06
2.13907e-06
0.000195655
-5.84691e-06
6.21211e-06
0.0002019
-2.05885e-05
6.77584e-06
0.00020625
-1.95164e-05
7.92797e-06
0.000209057
-1.39615e-06
6.53092e-06
0.000213252
1.17155e-05
-1.04603e-07
0.000217853
1.70113e-05
-8.67079e-06
1.2058e-05
-9.07717e-06
0.000229062
1.46393e-05
-1.47605e-06
0.000222264
2.21958e-05
1.59137e-06
0.000220262
2.67652e-05
1.86064e-06
0.000219929
1.84917e-05
1.55111e-06
0.000221019
-8.30809e-06
1.28066e-06
0.000224166
-1.77676e-05
-2.24893e-06
0.000224782
3.01706e-06
-5.75466e-06
0.000223236
4.65867e-06
-7.75677e-06
0.000221868
-1.00014e-05
-7.6299e-06
0.000216966
-1.18682e-05
-2.67834e-06
0.000213038
-1.35664e-05
2.44215e-06
0.000214441
-1.61799e-05
4.89438e-06
0.000220549
-2.16856e-05
4.97006e-06
0.000229035
-1.97117e-05
3.89439e-06
0.000233314
-3.40237e-06
4.58931e-06
0.000233035
1.30769e-05
4.40958e-06
0.000232853
1.27671e-05
2.88184e-06
0.000233546
3.11508e-06
2.48676e-06
0.000232104
4.01907e-06
2.41245e-06
0.000228903
5.74956e-06
8.05116e-07
0.000226841
6.63665e-07
-4.95401e-07
0.000227861
-6.43627e-06
-3.10554e-07
0.000232442
-1.37932e-05
-1.26454e-06
0.000233881
6.77892e-07
-2.3964e-06
0.000225484
2.49052e-05
-3.19757e-07
0.000213074
2.27408e-05
2.23418e-06
0.000205717
7.04786e-06
3.74186e-06
0.000207359
-1.10077e-05
3.45257e-06
0.000216272
-1.77417e-05
7.14006e-07
0.000224212
-1.55115e-05
9.11856e-07
0.000229112
-2.10743e-05
3.20452e-06
0.000232657
-2.23244e-05
4.31518e-06
0.000231757
-9.81445e-06
3.23697e-06
0.000225988
1.02021e-05
7.99511e-07
0.00022076
1.46529e-05
-1.19649e-06
0.000220782
-4.21214e-06
-2.79352e-06
0.000223972
-1.55031e-05
-2.83044e-06
0.000223441
-5.84845e-06
-2.39205e-06
0.000217809
2.17747e-06
-3.5105e-06
0.000210983
7.84642e-06
-4.21278e-06
0.000206583
3.53726e-06
-4.82303e-06
0.000205681
-4.57035e-07
-3.43596e-06
0.00020452
6.02849e-06
1.30549e-06
0.000206209
-8.70275e-06
5.17686e-06
0.000212237
-3.26281e-05
5.89801e-06
0.000218216
-3.46571e-05
6.53684e-06
0.000224323
-1.4868e-05
4.24956e-06
0.000232292
3.04605e-07
-1.72275e-06
0.000239534
9.90503e-06
-7.68873e-06
1.30864e-05
-6.79597e-06
0.000251437
1.87947e-05
-8.86045e-07
0.000247229
2.77103e-05
1.37024e-06
0.000246554
2.91877e-05
2.03158e-06
0.000245398
2.01287e-05
1.30293e-06
0.000242502
-5.34014e-06
2.3111e-07
0.000241518
-1.63811e-05
-4.03594e-06
0.000242512
8.92135e-07
-6.81911e-06
0.00024512
-1.23845e-06
-7.7494e-06
0.00024739
-1.49552e-05
-8.11942e-06
0.000241765
-1.16298e-05
-3.88151e-06
0.000234739
-1.46295e-05
2.88761e-06
0.000233667
-2.1575e-05
7.68808e-06
0.000237947
-2.89767e-05
7.04488e-06
0.00024544
-2.66427e-05
3.27258e-06
0.000249727
-6.7049e-06
2.47979e-06
0.000250179
1.20632e-05
3.52507e-06
0.000250642
1.07429e-05
4.75647e-06
0.00025298
1.34592e-06
3.97204e-06
0.000253735
4.40275e-06
1.05435e-06
0.000252156
7.83214e-06
-1.00445e-06
0.000250556
4.023e-06
-4.83073e-07
0.000250037
-6.04121e-06
2.05732e-06
0.000253517
-1.82107e-05
1.70271e-06
0.000254961
-1.38161e-07
-3.57457e-07
0.000247216
3.28174e-05
1.50305e-06
0.000236357
3.14424e-05
4.03121e-06
0.000229016
1.14901e-05
4.51422e-06
0.000227998
-1.09258e-05
3.22901e-06
0.000234393
-2.1135e-05
6.07612e-07
0.0002416
-1.71788e-05
1.62727e-06
0.000245115
-1.95099e-05
3.48022e-06
0.000246385
-2.09242e-05
3.27258e-06
0.000244808
-9.23645e-06
1.89685e-06
0.000240257
1.11036e-05
-1.0256e-06
0.000236352
1.30809e-05
-2.47735e-06
0.000236177
-8.93328e-06
-3.10228e-06
0.000237051
-2.16367e-05
-2.40211e-06
0.000236242
-1.20947e-05
-1.39194e-06
0.000234294
-2.35248e-06
-3.92791e-06
0.000231471
5.96678e-06
-6.91557e-06
0.000228825
4.32553e-06
-6.62736e-06
0.000227886
2.64041e-06
-2.75525e-06
0.000225757
1.06697e-05
3.73693e-06
0.000225181
-7.79596e-06
7.44758e-06
0.000229043
-3.95371e-05
5.65624e-06
0.000234427
-4.68644e-05
2.83956e-06
0.000241613
-2.9303e-05
-7.08031e-07
0.000250616
-1.40835e-05
-5.12503e-06
0.000258537
-1.2054e-06