/*--------------------------------*- C++ -*----------------------------------*\
| =========                 |                                                 |
| \\      /  F ield         | OpenFOAM: The Open Source CFD Toolbox           |
|  \\    /   O peration     | Version:  2.3.0                                 |
|   \\  /    A nd           | Web:      www.OpenFOAM.org                      |
|    \\/     M anipulation  |                                                 |
\*---------------------------------------------------------------------------*/
FoamFile
{
    version     2.0;
    format      ascii;
    class       volScalarField;
    location    "100";
    object      pMean;
}
// * * * * * * * * * * * * * * * * * * * * * * * * * * * * * * * * * * * * * //

dimensions      [0 2 -2 0 0 0 0];

internalField   nonuniform List<scalar> 
90000
(
0.00344123
0.0034412
0.0034409
0.0034388
0.00343647
0.00343398
0.00343141
0.00342907
0.00342633
0.00342363
0.00342086
0.0034179
0.00341625
0.00341438
0.00341214
0.00341163
0.00341078
0.00340954
0.00340815
0.00340748
0.00340559
0.00340488
0.00340544
0.00340554
0.00340491
0.00340323
0.00340231
0.00340225
0.0034026
0.00340341
0.00340348
0.00340431
0.00340667
0.0034082
0.00340889
0.00340986
0.00341128
0.0034133
0.00341566
0.00341656
0.00341807
0.00342114
0.00342336
0.00342397
0.00342495
0.00342709
0.00342954
0.0034318
0.00343459
0.00343904
0.00344117
0.00344109
0.00344077
0.00343867
0.00343634
0.00343384
0.00343128
0.00342895
0.0034262
0.00342349
0.00342073
0.00341773
0.00341607
0.00341422
0.00341195
0.00341152
0.00341068
0.00340943
0.00340805
0.00340737
0.00340547
0.00340478
0.00340533
0.00340542
0.00340482
0.00340308
0.00340217
0.00340209
0.00340239
0.00340324
0.00340329
0.00340406
0.00340647
0.00340803
0.00340873
0.00340973
0.00341117
0.00341325
0.00341563
0.00341646
0.003418
0.00342101
0.0034232
0.00342381
0.0034248
0.00342694
0.0034294
0.0034317
0.00343443
0.00343896
0.00344088
0.0034409
0.00344055
0.00343843
0.00343609
0.00343364
0.00343107
0.00342872
0.00342601
0.00342333
0.00342061
0.00341765
0.00341596
0.00341413
0.00341181
0.00341137
0.00341056
0.00340929
0.00340786
0.00340716
0.00340522
0.00340444
0.00340502
0.00340515
0.00340455
0.00340287
0.00340188
0.00340182
0.00340219
0.00340308
0.00340323
0.0034039
0.00340621
0.00340775
0.00340844
0.00340944
0.00341091
0.003413
0.00341537
0.00341619
0.00341774
0.00342068
0.00342284
0.0034235
0.00342444
0.00342654
0.00342895
0.00343133
0.00343419
0.00343863
0.00344086
0.00344082
0.00344043
0.00343822
0.00343576
0.00343335
0.00343076
0.00342834
0.00342552
0.00342286
0.00342016
0.00341713
0.00341536
0.00341362
0.00341152
0.00341097
0.00341024
0.00340906
0.00340757
0.0034068
0.00340506
0.00340441
0.00340492
0.00340484
0.00340432
0.00340253
0.00340138
0.00340126
0.00340153
0.00340243
0.00340281
0.00340346
0.00340568
0.00340728
0.00340804
0.00340903
0.00341059
0.00341277
0.00341517
0.00341613
0.00341758
0.00342047
0.00342255
0.00342323
0.00342423
0.00342622
0.00342846
0.0034308
0.00343348
0.00343804
0.00344054
0.00344081
0.00344023
0.00343774
0.00343512
0.00343273
0.0034302
0.00342776
0.00342511
0.0034225
0.0034201
0.00341724
0.00341524
0.00341357
0.00341123
0.00341037
0.00340965
0.00340848
0.00340695
0.00340604
0.00340428
0.00340374
0.00340442
0.0034043
0.00340369
0.0034021
0.00340077
0.00340075
0.00340127
0.00340254
0.00340312
0.00340362
0.00340544
0.00340689
0.0034077
0.00340875
0.00341034
0.00341235
0.00341463
0.00341562
0.00341702
0.00341994
0.00342209
0.0034228
0.00342367
0.00342561
0.00342768
0.00343026
0.0034328
0.00343713
0.00343949
0.00344064
0.00343999
0.00343728
0.00343431
0.00343184
0.00342927
0.00342659
0.00342372
0.00342109
0.0034184
0.00341555
0.00341349
0.00341199
0.00341015
0.00340917
0.00340845
0.00340761
0.00340625
0.00340554
0.00340399
0.0034037
0.00340442
0.00340398
0.0034032
0.00340144
0.00340002
0.00339994
0.0034002
0.00340139
0.0034026
0.00340328
0.00340489
0.00340627
0.00340697
0.00340795
0.00340972
0.00341188
0.00341408
0.00341526
0.00341683
0.00341986
0.00342198
0.00342269
0.00342345
0.00342539
0.00342747
0.00342957
0.00343183
0.00343544
0.00343911
0.00343974
0.00343822
0.00343518
0.00343216
0.00342971
0.00342743
0.00342487
0.00342222
0.00341976
0.00341741
0.00341486
0.00341269
0.00341112
0.00340944
0.0034083
0.00340756
0.00340668
0.00340505
0.00340397
0.00340275
0.00340268
0.00340375
0.00340324
0.00340215
0.00340042
0.00339852
0.00339889
0.0033995
0.00340068
0.00340198
0.00340285
0.00340439
0.00340586
0.00340657
0.00340743
0.00340905
0.00341101
0.00341277
0.00341404
0.00341588
0.00341867
0.0034202
0.00342054
0.00342139
0.00342393
0.00342605
0.00342842
0.00343034
0.00343437
0.00343615
0.00343741
0.00343617
0.00343333
0.00343029
0.00342774
0.0034256
0.00342274
0.00341966
0.00341712
0.0034148
0.00341293
0.00341105
0.00340987
0.00340882
0.00340704
0.00340574
0.00340509
0.00340407
0.00340278
0.00340145
0.00340136
0.00340287
0.00340259
0.00340133
0.00339983
0.00339798
0.00339771
0.00339742
0.0033978
0.00339922
0.0034005
0.00340159
0.00340236
0.00340285
0.00340386
0.00340581
0.00340822
0.00341066
0.00341271
0.00341439
0.00341679
0.00341807
0.0034189
0.00342017
0.00342294
0.00342495
0.00342658
0.0034277
0.00343069
0.00343346
0.00343524
0.00343394
0.00343123
0.00342786
0.0034251
0.0034223
0.00341953
0.00341719
0.00341552
0.00341364
0.00341153
0.00340945
0.00340857
0.00340862
0.00340693
0.00340553
0.00340461
0.00340283
0.0034006
0.00339906
0.0033995
0.00340088
0.00339991
0.00339781
0.00339636
0.00339513
0.00339557
0.00339535
0.00339574
0.00339709
0.00339803
0.00339849
0.00339882
0.00339955
0.00340051
0.00340208
0.00340442
0.00340681
0.00340916
0.00341122
0.0034137
0.00341552
0.00341742
0.00341932
0.00342139
0.00342186
0.00342234
0.00342331
0.00342702
0.00343031
0.00343269
0.00343107
0.00342803
0.00342482
0.0034221
0.00341935
0.00341694
0.00341464
0.00341282
0.00341052
0.00340857
0.0034068
0.00340572
0.00340569
0.00340411
0.00340288
0.00340187
0.00340067
0.00339873
0.00339763
0.00339788
0.00339872
0.00339729
0.00339528
0.00339428
0.00339383
0.0033943
0.00339381
0.00339362
0.00339408
0.00339492
0.0033959
0.00339699
0.00339821
0.00339874
0.00339892
0.00339998
0.00340133
0.0034034
0.00340594
0.00340877
0.00341076
0.00341328
0.0034156
0.0034175
0.00341783
0.00341828
0.00341941
0.00342292
0.00342871
0.0034319
0.00343073
0.00342703
0.00342266
0.00341911
0.00341645
0.00341441
0.00341212
0.0034103
0.00340808
0.00340649
0.00340479
0.00340345
0.00340282
0.00340167
0.00340064
0.00339988
0.00339903
0.00339719
0.00339607
0.00339596
0.00339672
0.00339632
0.00339522
0.00339498
0.00339393
0.00339313
0.00339148
0.00339087
0.00339093
0.00339198
0.0033933
0.0033943
0.00339532
0.00339667
0.00339717
0.00339769
0.00339827
0.00340022
0.00340209
0.00340452
0.00340683
0.00340981
0.00341176
0.00341311
0.00341451
0.0034163
0.0034177
0.00342092
0.00342853
0.00343105
0.0034299
0.00342663
0.00342206
0.00341802
0.00341448
0.00341245
0.00341064
0.00340908
0.00340687
0.00340506
0.00340325
0.00340222
0.00340272
0.00340248
0.00340127
0.00339895
0.00339673
0.00339453
0.0033941
0.00339453
0.00339571
0.00339587
0.00339471
0.00339453
0.00339398
0.00339271
0.003391
0.00338958
0.00338857
0.00338877
0.00339013
0.00339187
0.00339386
0.00339611
0.00339781
0.0033987
0.00339904
0.00340048
0.00340194
0.00340369
0.00340572
0.00340863
0.00341058
0.00341111
0.00341221
0.00341475
0.00341726
0.00342218
0.0034249
0.00342748
0.00342723
0.00342467
0.00342119
0.00341829
0.00341556
0.00341311
0.00341034
0.00340825
0.00340648
0.00340533
0.00340412
0.0034033
0.0034026
0.00340122
0.00339932
0.00339713
0.00339505
0.00339312
0.00339258
0.00339242
0.00339289
0.003393
0.00339295
0.00339406
0.0033942
0.00339346
0.00339115
0.00338864
0.00338724
0.0033869
0.00338838
0.00339089
0.0033933
0.00339517
0.00339644
0.00339745
0.0033982
0.00340018
0.00340185
0.00340419
0.00340657
0.003409
0.00341089
0.0034119
0.00341321
0.00341513
0.00341792
0.00341967
0.00342061
0.00342307
0.00342349
0.00342161
0.00341739
0.00341373
0.00341113
0.00340896
0.00340674
0.00340526
0.00340411
0.00340294
0.00340163
0.0034008
0.00340118
0.00340103
0.00339999
0.00339746
0.00339507
0.00339314
0.00339177
0.00339018
0.00338927
0.00338918
0.00338964
0.00339054
0.00339013
0.00338914
0.00338746
0.00338601
0.0033851
0.00338496
0.00338658
0.00338952
0.00339247
0.00339509
0.00339698
0.00339792
0.0033985
0.00340012
0.00340167
0.00340462
0.00340777
0.00341024
0.00341051
0.0034106
0.0034117
0.00341329
0.00341424
0.00341615
0.00341856
0.0034199
0.00342011
0.00341891
0.00341683
0.00341462
0.00341206
0.00340949
0.00340732
0.0034056
0.00340301
0.00340058
0.00339816
0.0033967
0.00339631
0.00339553
0.00339429
0.00339162
0.00338912
0.00338759
0.00338678
0.00338646
0.00338674
0.00338721
0.00338822
0.00338927
0.00338815
0.00338738
0.00338668
0.00338618
0.00338564
0.00338567
0.00338689
0.00338857
0.00339015
0.0033924
0.00339422
0.00339513
0.00339606
0.00339746
0.0033987
0.00340154
0.00340531
0.00340831
0.00341036
0.0034118
0.00341305
0.00341357
0.00341404
0.00341618
0.00341603
0.00341648
0.00341531
0.00341357
0.00341217
0.00341063
0.00340829
0.00340615
0.0034042
0.0034017
0.00339903
0.00339743
0.00339655
0.00339597
0.00339565
0.00339454
0.00339288
0.00339001
0.00338764
0.00338565
0.00338426
0.00338378
0.00338388
0.00338302
0.00338178
0.00338167
0.00338144
0.00338159
0.00338141
0.00338146
0.00338122
0.00338127
0.00338176
0.0033829
0.00338517
0.00338806
0.00338989
0.00339069
0.00339246
0.00339436
0.00339523
0.00339729
0.0033998
0.00340171
0.0034039
0.00340658
0.0034084
0.00340952
0.00341026
0.00341221
0.00341139
0.00341301
0.00341364
0.00341358
0.00341294
0.00341064
0.00340714
0.00340436
0.00340209
0.00339928
0.00339684
0.00339534
0.00339423
0.00339279
0.00339109
0.00338957
0.00338755
0.00338537
0.00338434
0.00338219
0.00337986
0.00337827
0.00337737
0.00337625
0.00337565
0.00337689
0.00337793
0.00337891
0.00337932
0.00337902
0.00337805
0.00337693
0.00337665
0.00337667
0.00337802
0.0033807
0.00338163
0.00338338
0.00338548
0.00338611
0.00338663
0.00338949
0.00339325
0.00339671
0.00340005
0.00340261
0.00340416
0.00340532
0.00340661
0.00340832
0.0034069
0.00341058
0.00341184
0.00341136
0.00340937
0.0034054
0.0034012
0.0033982
0.00339599
0.00339413
0.00339231
0.00339048
0.00338781
0.00338531
0.00338415
0.00338416
0.00338353
0.00338294
0.00338353
0.00338226
0.00338034
0.00337761
0.00337545
0.00337451
0.00337447
0.00337518
0.00337566
0.00337672
0.00337677
0.00337501
0.00337217
0.00337108
0.00337207
0.00337301
0.00337506
0.00337646
0.00337494
0.00337628
0.0033785
0.00338031
0.00338262
0.00338657
0.00339032
0.00339339
0.00339578
0.0033974
0.00339818
0.00339938
0.00340148
0.00340313
0.00340852
0.00341246
0.00341344
0.00341189
0.00340887
0.00340565
0.00340361
0.00340186
0.00340003
0.00339835
0.00339574
0.00339284
0.00338979
0.00338824
0.00338753
0.00338743
0.00338605
0.00338575
0.00338683
0.00338607
0.00338407
0.00338102
0.00337949
0.0033798
0.00338061
0.00338021
0.00337969
0.00338006
0.00338004
0.00337897
0.00337812
0.00337847
0.00337972
0.00337959
0.00338054
0.00337991
0.00337922
0.00338137
0.00338313
0.00338498
0.00338904
0.0033922
0.00339331
0.00339645
0.00340012
0.00340167
0.00340246
0.00340457
0.0034076
0.003408
0.00342588
0.00343294
0.00343162
0.00342686
0.00342063
0.00341567
0.00341271
0.00341029
0.00340901
0.00340702
0.0034027
0.00339875
0.00339592
0.00339316
0.00339154
0.00339197
0.00339143
0.00339267
0.00339468
0.0033946
0.00339259
0.00339085
0.00338956
0.00338959
0.00339107
0.00339112
0.00339131
0.00339204
0.00338958
0.00338591
0.00338253
0.00338124
0.00338044
0.00337895
0.00337991
0.00338111
0.00338456
0.00338871
0.00339013
0.00339346
0.0033981
0.00340132
0.00340599
0.00341101
0.00341471
0.00341583
0.00341654
0.00341908
0.00342101
0.00342068
0.00339501
0.00343319
0.00343274
0.00342685
0.00342111
0.00341847
0.00341721
0.00341528
0.00341347
0.00341084
0.00340693
0.00340321
0.00339975
0.00339492
0.00339154
0.00339015
0.00338955
0.00339149
0.00339112
0.00339297
0.00339101
0.0033894
0.00338871
0.00338849
0.00338963
0.00339079
0.00339093
0.00338992
0.00338712
0.00338626
0.00338525
0.00338642
0.00338535
0.00338216
0.00337998
0.00338037
0.00338517
0.0033917
0.00339324
0.0033921
0.00339474
0.00339283
0.00340234
0.00340457
0.00340656
0.00340894
0.00341149
0.0034117
0.00341563
0.00339197
0.00341674
0.00342405
0.0034247
0.00342289
0.00341845
0.00341378
0.0034102
0.00340846
0.00340753
0.00340569
0.00340266
0.00339977
0.00339706
0.0033943
0.00339274
0.0033926
0.00339379
0.00339525
0.00339481
0.00339744
0.00339799
0.00339726
0.00339606
0.00339576
0.00339669
0.00339825
0.0033968
0.00339504
0.00339312
0.00339156
0.00338827
0.00338585
0.00338503
0.00338472
0.00338374
0.0033844
0.0033885
0.00339099
0.00339498
0.00339524
0.00339935
0.00340085
0.0034052
0.00340938
0.00340865
0.00340949
0.00340915
0.00341058
0.00341119
0.00341263
0.00342466
0.00343694
0.00343898
0.00343458
0.00342903
0.00342467
0.00342148
0.00341858
0.00341683
0.00341565
0.00341401
0.00341162
0.00340795
0.00340368
0.00340061
0.00339832
0.00339774
0.003399
0.00339681
0.00339883
0.00339776
0.00339648
0.00339767
0.00339837
0.00339877
0.00339973
0.00339934
0.00339932
0.00339926
0.00339888
0.00339816
0.00339856
0.00339771
0.0033973
0.00339674
0.00339361
0.00339733
0.00339768
0.00340273
0.00340538
0.00340664
0.00340436
0.0034083
0.00341417
0.00341719
0.00341978
0.00342396
0.00342548
0.00342939
0.00342799
0.00343334
0.00343792
0.00343809
0.00343475
0.00343033
0.003426
0.00342277
0.00342065
0.00341889
0.00341766
0.00341421
0.00340978
0.0034063
0.00340333
0.00340128
0.00339991
0.00339966
0.00340047
0.00339921
0.00339937
0.00340002
0.00340133
0.0034028
0.00340298
0.00340187
0.00340119
0.00340025
0.00339904
0.00339802
0.00339702
0.00339605
0.00339531
0.00339463
0.00339404
0.00339499
0.00339596
0.00339958
0.00340095
0.00340506
0.00340921
0.00341024
0.00341257
0.00341755
0.00342139
0.00342148
0.00342315
0.00342477
0.00342564
0.00342569
0.00342893
0.00343589
0.00343318
0.00343072
0.00342834
0.00342596
0.00342329
0.00342124
0.00342021
0.00342055
0.00342113
0.00342013
0.00341786
0.00341484
0.00341173
0.00340887
0.00340663
0.00340485
0.00340283
0.00339875
0.00339644
0.00339482
0.00339381
0.00339332
0.00339348
0.00339415
0.00339395
0.00339347
0.0033932
0.00339339
0.0033936
0.00339377
0.00339506
0.00339741
0.00339854
0.00339812
0.00339551
0.00339665
0.00339841
0.00340007
0.0034022
0.0034026
0.00340451
0.00340744
0.00341066
0.00341358
0.00341575
0.00341854
0.0034227
0.00342587
0.0034325
0.00342028
0.00342251
0.00342331
0.00342314
0.00342187
0.00341963
0.00341676
0.00341515
0.00341565
0.00341706
0.0034162
0.00341251
0.00340764
0.00340339
0.00340026
0.0033982
0.00339689
0.00339672
0.00339696
0.00339642
0.00339584
0.00339638
0.00339725
0.00339748
0.00339767
0.00339674
0.00339458
0.0033915
0.00338828
0.00338637
0.00338566
0.00338525
0.0033867
0.00338856
0.00339039
0.00339201
0.00339342
0.00339583
0.0033981
0.00340067
0.00340269
0.00340474
0.00340804
0.0034121
0.00341529
0.00341756
0.00341932
0.00342096
0.00342129
0.00342079
0.00342871
0.00342389
0.00341728
0.00341135
0.00340824
0.00340614
0.00340682
0.00340811
0.00341113
0.00341283
0.00341167
0.00340864
0.00340595
0.00340403
0.00340257
0.00340087
0.00339849
0.00339576
0.00339278
0.00339092
0.00338964
0.00338901
0.00339011
0.00339175
0.00339319
0.00339281
0.00339212
0.00339148
0.00339149
0.00339168
0.00339209
0.00339279
0.00339494
0.00339752
0.0034007
0.00340276
0.00340362
0.00340441
0.00340575
0.00340733
0.00340912
0.00340986
0.00340986
0.0034095
0.00341015
0.00341229
0.00341399
0.0034154
0.00341835
0.00342368
0.00341317
0.0034132
0.00340998
0.00341073
0.00340571
0.00340439
0.00340239
0.00341562
0.00342511
0.00342815
0.00342416
0.00341675
0.00341046
0.00340782
0.00340646
0.00340511
0.00340239
0.00340065
0.00340027
0.00339976
0.00339931
0.00339895
0.00339886
0.00339934
0.00340017
0.00340078
0.00340073
0.00339999
0.00339744
0.00339501
0.00339277
0.00339156
0.00339038
0.00338953
0.00338931
0.00339078
0.00339154
0.00339344
0.00339573
0.00340019
0.00340207
0.00340283
0.00340132
0.00340285
0.00340487
0.00341017
0.00341294
0.00341535
0.00341512
0.00341489
0.00341283
0.00341048
0.00340558
0.0034016
0.00339887
0.0033968
0.00339551
0.00339594
0.00339847
0.00339989
0.00340075
0.00339998
0.00339801
0.00339654
0.00339583
0.00339605
0.00339623
0.00339615
0.0033947
0.00339224
0.00339006
0.00338913
0.00338913
0.00338913
0.00338817
0.00338713
0.00338663
0.00338714
0.00338879
0.00338851
0.00338797
0.00338674
0.00338466
0.00338272
0.00338284
0.00338541
0.0033887
0.00339065
0.00339149
0.00339174
0.00339237
0.00339304
0.00339275
0.0033942
0.00339664
0.00339995
0.00340207
0.00340349
0.00340472
0.00340827
0.00340408
0.00340401
0.00340259
0.00340089
0.00339938
0.00339916
0.00339947
0.00340059
0.0034029
0.0034043
0.00340474
0.00340236
0.00339887
0.00339708
0.00339438
0.0033909
0.00338829
0.00338586
0.0033832
0.00338213
0.00338258
0.00338316
0.0033825
0.00338037
0.00337804
0.00337767
0.00337996
0.00338233
0.00338257
0.00338014
0.00337706
0.00337622
0.0033765
0.0033774
0.0033791
0.00337987
0.00338088
0.00338206
0.00338293
0.00338391
0.00338646
0.00338925
0.00339112
0.00339244
0.00339326
0.00339475
0.00339637
0.00339743
0.00339869
0.00340115
0.00344954
0.00344937
0.00344817
0.00344705
0.00344518
0.00344263
0.0034395
0.00343745
0.00343471
0.00343171
0.00342852
0.00342595
0.0034238
0.00342166
0.0034205
0.00341773
0.00341632
0.00341644
0.00341603
0.00341535
0.00341418
0.0034139
0.00341445
0.0034136
0.00341199
0.0034118
0.0034106
0.00341025
0.00341
0.00340997
0.00341215
0.00341273
0.00341352
0.00341389
0.00341334
0.00341243
0.00341261
0.00341425
0.00341724
0.00341972
0.00342057
0.00342435
0.00342955
0.00343408
0.00343638
0.00343829
0.00343996
0.00344296
0.00344479
0.00344723
0.00344895
0.00344884
0.00344751
0.00344612
0.0034441
0.00344147
0.00343837
0.0034364
0.00343385
0.00343112
0.00342815
0.00342553
0.00342314
0.00342086
0.0034198
0.00341725
0.0034159
0.00341592
0.00341555
0.00341495
0.00341381
0.00341348
0.00341404
0.00341334
0.00341204
0.00341204
0.00341077
0.00341009
0.00340954
0.00340935
0.00341125
0.00341156
0.00341226
0.00341277
0.00341251
0.00341203
0.00341263
0.00341442
0.00341714
0.00341922
0.00341985
0.00342341
0.00342864
0.00343312
0.00343528
0.00343714
0.00343889
0.00344198
0.003444
0.00344661
0.00344858
0.00344857
0.00344732
0.00344584
0.00344379
0.00344139
0.00343854
0.00343683
0.00343426
0.00343113
0.00342774
0.00342503
0.00342285
0.00342088
0.00341995
0.00341741
0.00341607
0.00341582
0.0034151
0.00341441
0.00341312
0.00341275
0.00341319
0.00341245
0.00341137
0.00341176
0.00341087
0.00341034
0.00340944
0.00340918
0.00341095
0.00341076
0.00341142
0.00341212
0.0034118
0.00341088
0.00341121
0.00341329
0.00341614
0.00341824
0.00341925
0.0034235
0.00342887
0.00343307
0.00343484
0.00343648
0.00343858
0.00344223
0.00344436
0.00344658
0.0034467
0.00344718
0.00344643
0.00344514
0.00344318
0.00344085
0.00343777
0.00343581
0.00343307
0.00342957
0.00342614
0.00342356
0.00342144
0.00341976
0.00341884
0.00341643
0.0034156
0.00341521
0.0034143
0.00341363
0.0034122
0.00341162
0.00341169
0.00341071
0.00341001
0.00341068
0.00340992
0.00340942
0.00340846
0.00340879
0.00341094
0.00341019
0.00341037
0.00341117
0.00341078
0.00340939
0.00340949
0.00341233
0.00341547
0.00341687
0.00341774
0.00342289
0.00342879
0.00343255
0.0034333
0.00343424
0.0034363
0.00344016
0.00344236
0.00344444
0.00344438
0.00344526
0.00344492
0.00344369
0.00344202
0.00344018
0.0034371
0.00343504
0.00343231
0.00342842
0.00342414
0.00342141
0.00341915
0.00341773
0.00341647
0.00341371
0.00341322
0.00341306
0.00341246
0.00341241
0.00341141
0.00341166
0.00341155
0.00341001
0.00340964
0.00341057
0.00340961
0.00340892
0.00340723
0.0034083
0.00341089
0.00340905
0.00340872
0.00341
0.00340961
0.003408
0.00340756
0.00341055
0.00341353
0.0034137
0.00341478
0.00342106
0.00342766
0.00343095
0.00343104
0.0034313
0.00343319
0.00343752
0.00344024
0.00344249
0.00344207
0.00344381
0.00344368
0.00344203
0.00343987
0.00343784
0.0034349
0.00343302
0.00343057
0.00342626
0.0034218
0.00341931
0.0034176
0.00341691
0.00341568
0.0034128
0.00341259
0.00341207
0.00341113
0.00341122
0.00341056
0.00341158
0.0034114
0.00340917
0.00340905
0.00340984
0.00340863
0.00340765
0.00340558
0.00340664
0.00340961
0.00340697
0.00340601
0.00340775
0.0034082
0.00340734
0.00340689
0.00341032
0.0034132
0.00341225
0.00341324
0.00342034
0.00342722
0.00342973
0.00342877
0.00342833
0.00343029
0.00343502
0.00343804
0.00344005
0.00343914
0.00344317
0.00344423
0.00344253
0.00343991
0.00343747
0.003434
0.00343177
0.00342905
0.00342428
0.00341971
0.00341724
0.00341553
0.00341485
0.00341323
0.00341047
0.00341062
0.00341001
0.00340931
0.00340934
0.00340852
0.00341039
0.00341022
0.0034075
0.0034078
0.00340847
0.00340665
0.00340619
0.00340472
0.00340631
0.00340851
0.00340521
0.00340364
0.00340437
0.00340518
0.00340552
0.00340634
0.00341061
0.0034131
0.00341017
0.00341134
0.00341929
0.00342661
0.00342905
0.00342877
0.00342894
0.00343051
0.00343403
0.00343575
0.00343654
0.00343407
0.0034405
0.00344219
0.00344025
0.0034376
0.00343446
0.00343083
0.00342896
0.00342639
0.00342183
0.00341727
0.00341463
0.00341245
0.00341155
0.00340965
0.00340763
0.00340813
0.00340816
0.00340711
0.00340677
0.00340602
0.00340794
0.00340819
0.00340541
0.00340506
0.00340453
0.00340204
0.00340175
0.0034012
0.00340236
0.00340353
0.00340122
0.00339975
0.00340028
0.00340233
0.00340399
0.00340574
0.0034106
0.00341243
0.00340901
0.00341114
0.00341854
0.00342358
0.00342503
0.00342571
0.00342802
0.0034306
0.00343336
0.00343361
0.00343125
0.00342884
0.00343626
0.00343769
0.00343575
0.00343284
0.00342954
0.00342626
0.00342434
0.00342195
0.00341772
0.00341357
0.00341138
0.00340923
0.00340818
0.00340562
0.00340377
0.00340415
0.00340362
0.00340189
0.00340017
0.00339875
0.00340066
0.00340254
0.00340173
0.00340166
0.00340064
0.00339805
0.00339772
0.0033976
0.00339824
0.00339904
0.00339767
0.00339601
0.0033963
0.00339897
0.00340076
0.0034028
0.00340712
0.00340896
0.00340815
0.00341198
0.00341621
0.00341844
0.00341834
0.00341977
0.00342443
0.00342972
0.0034335
0.00343351
0.00342889
0.00342813
0.00343788
0.00343792
0.00343516
0.0034317
0.00342737
0.00342313
0.00341986
0.00341656
0.00341165
0.00340733
0.00340558
0.00340507
0.00340415
0.00340055
0.00339937
0.00339892
0.00339802
0.00339607
0.00339323
0.0033912
0.00339293
0.00339561
0.00339581
0.00339587
0.00339535
0.00339507
0.00339516
0.00339502
0.0033957
0.00339622
0.00339565
0.00339418
0.00339479
0.00339803
0.00339917
0.00340019
0.00340303
0.00340389
0.00340276
0.00340675
0.00341098
0.00341326
0.00341409
0.00341486
0.00341715
0.00342037
0.00342698
0.00342808
0.00342248
0.00341178
0.00343293
0.00343421
0.00343087
0.00342609
0.00342115
0.0034168
0.00341332
0.00341019
0.00340563
0.00340208
0.00340097
0.00340178
0.0034002
0.00339551
0.00339568
0.00339554
0.00339489
0.00339239
0.00338917
0.00338735
0.00338909
0.0033917
0.00339245
0.00339231
0.00339192
0.00339373
0.00339391
0.003393
0.00339335
0.00339309
0.0033917
0.00339023
0.00339086
0.00339221
0.00339161
0.00339335
0.00339609
0.00339484
0.00339355
0.00339862
0.00340474
0.00340884
0.0034101
0.00340919
0.00340608
0.00340431
0.00341036
0.00341846
0.00340651
0.00341301
0.00342522
0.00342691
0.00342304
0.00341737
0.00341233
0.00340871
0.00340654
0.00340449
0.00340184
0.0034007
0.00340073
0.00340098
0.00339866
0.00339437
0.00339433
0.0033937
0.00339245
0.00339015
0.0033873
0.00338625
0.00338796
0.00338972
0.00338972
0.00338971
0.00338952
0.00339089
0.00339087
0.00339051
0.0033907
0.0033881
0.00338473
0.00338364
0.00338417
0.00338378
0.00338172
0.00338346
0.0033868
0.0033849
0.00338225
0.00338895
0.00339759
0.00340199
0.00340244
0.00340176
0.0034006
0.00340028
0.00340664
0.00341033
0.00340756
0.00341278
0.00342422
0.00342575
0.00342123
0.00341483
0.00340913
0.00340486
0.0034018
0.00339961
0.00339828
0.00339852
0.00339876
0.00339823
0.00339614
0.00339291
0.00339415
0.0033945
0.00339397
0.00339168
0.00338957
0.00338828
0.00338924
0.00339024
0.00339009
0.00338939
0.00338803
0.00338906
0.00338844
0.00338732
0.00338671
0.00338451
0.00338149
0.00338037
0.00338003
0.00337873
0.00337678
0.00338016
0.00338637
0.00338781
0.00338398
0.00338687
0.00339347
0.00339767
0.00339653
0.00339554
0.00339693
0.00340125
0.00340745
0.00341548
0.0034124
0.00341024
0.00341959
0.00342246
0.00341962
0.0034148
0.00340993
0.00340574
0.00340252
0.00340038
0.00339952
0.00339917
0.00339781
0.00339622
0.00339431
0.00339214
0.00339332
0.00339431
0.00339445
0.00339348
0.00339214
0.00339132
0.00339185
0.00339221
0.00339165
0.00339088
0.00338912
0.00339012
0.00339037
0.0033888
0.00338642
0.00338454
0.00338346
0.00338344
0.00338222
0.00337924
0.00337736
0.00338044
0.00338695
0.00339113
0.0033892
0.00338946
0.00339306
0.00339674
0.00339721
0.0033973
0.00339951
0.00340273
0.00340734
0.00341116
0.00340933
0.00341081
0.00341504
0.00341861
0.00341833
0.00341555
0.00341194
0.0034086
0.00340602
0.00340448
0.00340349
0.00340267
0.00340065
0.00339838
0.00339708
0.00339494
0.00339563
0.00339594
0.00339604
0.00339509
0.00339408
0.00339315
0.00339287
0.00339303
0.00339221
0.00339062
0.00338891
0.00338941
0.00339003
0.00338846
0.00338592
0.00338521
0.00338674
0.00338886
0.00338863
0.00338608
0.00338434
0.00338584
0.00338973
0.00339277
0.00339017
0.00338944
0.00339089
0.00339418
0.00339732
0.00340065
0.00340461
0.00340701
0.00340887
0.00341214
0.00341257
0.00340975
0.00341161
0.00341516
0.00341635
0.0034148
0.00341167
0.00340811
0.00340535
0.0034038
0.00340273
0.00340104
0.00339884
0.00339724
0.00339671
0.00339593
0.00339544
0.00339487
0.00339418
0.00339336
0.0033933
0.00339317
0.00339315
0.00339408
0.00339509
0.00339458
0.00339133
0.00339032
0.00339001
0.00338791
0.00338461
0.00338451
0.00338492
0.00338597
0.00338648
0.00338633
0.00338655
0.00338872
0.00339156
0.00339379
0.00339368
0.00339387
0.00339569
0.00339949
0.00340356
0.00340795
0.00341234
0.00341379
0.00341461
0.00341506
0.00341327
0.00341831
0.00341744
0.00341683
0.00341628
0.00341412
0.00341051
0.003407
0.00340435
0.0034021
0.00339935
0.00339702
0.0033963
0.00339743
0.00339841
0.00339858
0.00339817
0.00339784
0.00339685
0.00339443
0.00339489
0.00339459
0.00339248
0.00339135
0.00339139
0.00339027
0.00338732
0.00338494
0.00338355
0.00338251
0.00338136
0.00338061
0.00338059
0.00338186
0.00338284
0.0033837
0.00338512
0.00338751
0.00339068
0.00339367
0.00339497
0.00339607
0.00339763
0.00340021
0.00340366
0.00340725
0.00341114
0.00341254
0.00341381
0.0034148
0.0034158
0.00341883
0.00342185
0.00342321
0.00342322
0.00342121
0.00341756
0.00341383
0.0034106
0.0034072
0.00340368
0.00340077
0.00339879
0.00339819
0.00339729
0.00339582
0.00339514
0.00339494
0.00339438
0.00339317
0.00339192
0.00339048
0.0033887
0.00338803
0.00338807
0.00338814
0.0033861
0.00338387
0.00338217
0.00338144
0.00338051
0.00337985
0.00337967
0.00338024
0.00338102
0.00338314
0.00338544
0.00338703
0.00339009
0.00339378
0.00339557
0.00339535
0.00339592
0.00339952
0.00340549
0.00341019
0.0034134
0.00341591
0.00341742
0.0034194
0.00341948
0.00342422
0.00342455
0.00342222
0.00341928
0.00341599
0.00341227
0.00340885
0.00340634
0.00340385
0.0034013
0.00339905
0.00339733
0.00339589
0.00339464
0.00339279
0.00339183
0.00339175
0.00339198
0.00339129
0.00338907
0.00338693
0.00338518
0.00338464
0.00338419
0.00338343
0.00338242
0.0033813
0.00337978
0.003379
0.00337861
0.00337783
0.0033762
0.00337543
0.00337735
0.00338165
0.00338623
0.0033892
0.00339226
0.00339466
0.00339555
0.00339607
0.00339866
0.00340322
0.00340715
0.00340917
0.00341049
0.00341287
0.00341534
0.0034173
0.00342047
0.00342536
0.00342521
0.0034213
0.00341722
0.00341426
0.00341222
0.00341093
0.00340974
0.00340766
0.00340422
0.00340081
0.00339826
0.00339625
0.00339491
0.0033937
0.00339361
0.00339477
0.00339626
0.00339726
0.00339662
0.00339564
0.00339364
0.00339063
0.00338864
0.00338887
0.00338955
0.00338963
0.00338911
0.00338774
0.0033853
0.00338308
0.00338222
0.00338291
0.00338429
0.00338624
0.00338947
0.0033926
0.00339604
0.0033996
0.00340218
0.00340376
0.00340597
0.00340894
0.00341105
0.00341205
0.0034124
0.00341386
0.00341605
0.00341846
0.00342085
0.00343306
0.00343435
0.00343026
0.00342545
0.00342145
0.00341856
0.00341704
0.00341644
0.00341453
0.00341087
0.00340754
0.00340588
0.0034033
0.00340005
0.00339807
0.00339864
0.00340042
0.00340139
0.00340114
0.00339968
0.00339775
0.00339578
0.00339417
0.00339312
0.00339213
0.00339096
0.00338988
0.00338869
0.00338719
0.00338602
0.00338522
0.00338527
0.00338656
0.00338913
0.00339211
0.00339564
0.00339818
0.00340115
0.00340378
0.00340646
0.00340841
0.00341094
0.00341333
0.00341535
0.00341743
0.00341905
0.00342037
0.00342335
0.00342582
0.00342796
0.00342171
0.00342152
0.00341763
0.00341188
0.00340623
0.00340363
0.00340442
0.00340436
0.00340209
0.00339866
0.00339556
0.00339324
0.00339089
0.00338931
0.00338879
0.00338901
0.00338958
0.00338948
0.00338903
0.00338721
0.00338545
0.0033841
0.00338296
0.00338189
0.00338128
0.00338051
0.0033793
0.00337831
0.00337744
0.00337636
0.00337529
0.00337483
0.0033754
0.00337668
0.00337938
0.00338377
0.00338696
0.00338961
0.00339215
0.00339413
0.00339576
0.00339847
0.0034014
0.00340286
0.0034034
0.00340311
0.0034048
0.00340999
0.00341435
0.0034182
0.00342491
0.00342511
0.00342188
0.00341752
0.00341388
0.00341165
0.00341022
0.00340892
0.00340726
0.00340502
0.00340282
0.00340093
0.00339902
0.00339699
0.00339509
0.00339357
0.00339253
0.0033924
0.00339351
0.00339298
0.0033919
0.00339108
0.00339074
0.0033904
0.00339021
0.00339001
0.00338942
0.00338844
0.00338718
0.0033851
0.00338281
0.00338144
0.00338144
0.0033815
0.00338173
0.00338306
0.00338492
0.00338866
0.00339325
0.00339666
0.00339825
0.00339935
0.00340178
0.00340404
0.00340706
0.00341054
0.00341342
0.00341629
0.00341846
0.00342232
0.0034302
0.00342937
0.00342571
0.00342139
0.00341759
0.00341385
0.00341115
0.00340804
0.00340641
0.00340654
0.00340631
0.00340518
0.00340319
0.00340113
0.00339981
0.003399
0.00339847
0.00339849
0.00339891
0.00339752
0.00339576
0.00339439
0.00339371
0.00339341
0.00339299