/*--------------------------------*- C++ -*----------------------------------*\
| =========                 |                                                 |
| \\      /  F ield         | OpenFOAM: The Open Source CFD Toolbox           |
|  \\    /   O peration     | Version:  2.3.0                                 |
|   \\  /    A nd           | Web:      www.OpenFOAM.org                      |
|    \\/     M anipulation  |                                                 |
\*---------------------------------------------------------------------------*/
FoamFile
{
    version     2.0;
    format      ascii;
    class       volScalarField;
    location    "100";
    object      pPrime2Mean;
}
// * * * * * * * * * * * * * * * * * * * * * * * * * * * * * * * * * * * * * //

dimensions      [0 4 -4 0 0 0 0];

internalField   nonuniform List<scalar> 
90000
(
0.000167136
0.000167169
0.000167189
0.000167058
0.000166995
0.000167021
0.000167166
0.000167363
0.000167534
0.00016784
0.000168237
0.000168575
0.000168955
0.000168897
0.000165682
0.000166463
0.000166842
0.000166975
0.000167002
0.000167041
0.000167203
0.000167534
0.000168039
0.000168631
0.000169193
0.000165807
0.000166209
0.000166471
0.000166645
0.000166821
0.000167012
0.000167351
0.000167652
0.000167844
0.000168054
0.000168334
0.000168677
0.000169143
0.000169482
0.000165697
0.000166341
0.000167114
0.000167864
0.000168456
0.00016895
0.000169424
0.000169851
0.000170377
0.000170923
0.000171197
0.000167102
0.000167165
0.000167186
0.000167054
0.00016699
0.000167019
0.000167167
0.000167365
0.000167534
0.000167837
0.00016823
0.000168563
0.000168946
0.000168924
0.000165637
0.000166464
0.000166844
0.000166978
0.000167005
0.000167041
0.000167205
0.000167542
0.000168038
0.000168625
0.000169236
0.000165765
0.000166211
0.000166466
0.000166635
0.000166814
0.000167005
0.000167341
0.000167645
0.00016784
0.000168051
0.000168332
0.000168677
0.000169144
0.00016953
0.000165662
0.000166352
0.000167135
0.000167865
0.000168457
0.000168953
0.000169426
0.000169849
0.000170369
0.000170899
0.000171244
0.000167032
0.000167157
0.000167181
0.000167045
0.00016698
0.000167014
0.000167167
0.000167368
0.000167545
0.000167852
0.00016825
0.000168588
0.000168961
0.000168978
0.000165599
0.000166462
0.000166846
0.000166976
0.000166995
0.000167035
0.0001672
0.000167525
0.000168027
0.000168615
0.000169283
0.000165725
0.000166209
0.00016647
0.000166655
0.000166842
0.000167036
0.000167355
0.000167644
0.000167834
0.000168047
0.000168328
0.00016867
0.000169128
0.000169562
0.000165619
0.000166351
0.000167134
0.000167854
0.000168453
0.000168943
0.00016941
0.000169834
0.000170363
0.0001709
0.00017129
0.000166993
0.000167163
0.000167187
0.000167045
0.000166976
0.000167014
0.000167166
0.00016736
0.000167521
0.000167832
0.000168226
0.000168555
0.000168926
0.000169002
0.000165561
0.00016645
0.000166847
0.000166981
0.000166995
0.000167039
0.000167225
0.000167563
0.000168052
0.000168612
0.000169342
0.000165697
0.000166206
0.000166463
0.000166623
0.000166799
0.000167026
0.000167332
0.000167618
0.000167818
0.00016804
0.000168316
0.000168663
0.000169128
0.000169614
0.000165618
0.000166384
0.000167163
0.000167863
0.000168463
0.000168952
0.000169419
0.000169834
0.000170349
0.000170841
0.000171322
0.000166977
0.000167183
0.000167162
0.000167009
0.000166955
0.000167
0.000167155
0.000167346
0.000167536
0.00016786
0.000168297
0.000168651
0.000168992
0.0001691
0.000165554
0.000166449
0.00016685
0.00016697
0.000166963
0.000166998
0.000167189
0.000167514
0.000168006
0.000168566
0.000169346
0.000165679
0.000166212
0.000166491
0.000166679
0.000166885
0.000167097
0.000167367
0.000167613
0.000167807
0.000168042
0.000168315
0.000168671
0.000169105
0.00016964
0.0001656
0.000166379
0.000167133
0.000167843
0.000168443
0.000168907
0.000169378
0.000169795
0.00017034
0.0001708
0.000171348
0.000166869
0.000167212
0.00016723
0.000167074
0.000166981
0.000167011
0.000167149
0.000167315
0.000167473
0.000167795
0.000168196
0.000168549
0.00016891
0.000169063
0.000165517
0.000166429
0.000166833
0.000166968
0.000166975
0.000167031
0.000167237
0.00016756
0.000168029
0.000168548
0.000169378
0.000165674
0.000166243
0.000166506
0.000166634
0.000166802
0.000167076
0.000167337
0.000167576
0.000167787
0.000168001
0.000168244
0.000168613
0.000169067
0.000169694
0.000165636
0.000166424
0.000167184
0.000167907
0.00016853
0.000168976
0.000169415
0.000169832
0.000170311
0.000170726
0.000171259
0.000167015
0.000167259
0.000167174
0.000166996
0.000166902
0.000166947
0.000167107
0.000167295
0.000167508
0.000167866
0.000168316
0.000168666
0.000168972
0.000169114
0.000165535
0.000166451
0.000166889
0.000167023
0.000166939
0.000166953
0.000167178
0.000167509
0.000167974
0.000168481
0.000169367
0.000165669
0.000166162
0.000166465
0.000166692
0.00016691
0.000167155
0.000167391
0.000167615
0.000167876
0.000168128
0.000168344
0.000168665
0.000169062
0.000169641
0.000165582
0.000166402
0.000167145
0.000167856
0.000168448
0.000168885
0.00016934
0.000169755
0.000170276
0.000170658
0.00017133
0.000166833
0.000167204
0.000167185
0.000167002
0.00016689
0.000166938
0.000167112
0.000167323
0.000167481
0.000167785
0.000168186
0.000168581
0.000168913
0.000169128
0.000165579
0.000166444
0.000166816
0.000166944
0.000166954
0.000167024
0.000167242
0.00016751
0.000167943
0.000168475
0.00016945
0.000165807
0.000166313
0.000166518
0.00016664
0.000166774
0.000167042
0.000167348
0.000167594
0.000167849
0.000168044
0.000168231
0.000168548
0.000168973
0.00016963
0.000165663
0.000166465
0.000167189
0.000167865
0.000168477
0.000168891
0.000169336
0.000169775
0.000170305
0.000170628
0.000171178
0.000166935
0.000167315
0.000167219
0.000167026
0.000166932
0.00016695
0.000167044
0.000167246
0.000167465
0.000167864
0.000168314
0.000168639
0.000168877
0.000169074
0.00016564
0.000166589
0.000167006
0.000167096
0.000166953
0.000166931
0.000167099
0.000167411
0.000167852
0.000168378
0.000169362
0.000165728
0.000166182
0.000166446
0.000166612
0.000166793
0.000167132
0.000167412
0.00016764
0.000167855
0.00016803
0.000168188
0.00016852
0.00016895
0.000169611
0.000165667
0.000166466
0.000167182
0.000167866
0.000168475
0.000168917
0.000169375
0.000169735
0.000170247
0.000170523
0.000171167
0.000166912
0.000167292
0.000167146
0.000166918
0.000166875
0.000166932
0.000167072
0.000167316
0.000167526
0.000167873
0.000168212
0.000168535
0.000168796
0.000168941
0.000165621
0.000166616
0.000166992
0.000166983
0.00016686
0.000166856
0.000167117
0.000167427
0.000167837
0.000168357
0.000169334
0.000165762
0.000166236
0.00016651
0.000166706
0.000166813
0.000167098
0.000167393
0.000167651
0.000167845
0.000168033
0.000168212
0.000168513
0.000168934
0.000169578
0.000165713
0.000166559
0.000167301
0.000167845
0.000168377
0.00016884
0.000169336
0.000169721
0.00017023
0.000170512
0.000171092
0.000166875
0.000167243
0.000167111
0.000166857
0.000166764
0.000166862
0.000167058
0.000167296
0.000167477
0.000167782
0.000168168
0.000168566
0.000168797
0.000168889
0.000165643
0.000166679
0.000167026
0.000167031
0.000166859
0.000166883
0.00016714
0.000167367
0.000167736
0.000168314
0.000169283
0.000165879
0.000166409
0.000166661
0.00016682
0.000166884
0.000167124
0.000167478
0.000167733
0.000167759
0.000167793
0.000168027
0.000168398
0.000168825
0.000169462
0.000165799
0.000166636
0.000167317
0.000167825
0.000168349
0.000168775
0.000169271
0.000169779
0.000170336
0.000170489
0.00017097
0.00016702
0.000167338
0.000167148
0.00016689
0.000166797
0.000166859
0.000166913
0.000167118
0.000167407
0.00016788
0.000168319
0.000168569
0.000168732
0.000168872
0.000165796
0.000166928
0.000167351
0.000167267
0.000166929
0.000166874
0.000167053
0.00016732
0.000167738
0.000168296
0.000169071
0.000165616
0.000166243
0.000166563
0.000166845
0.000166898
0.000167136
0.000167476
0.000167713
0.0001677
0.000167778
0.000167967
0.00016842
0.000168889
0.000169503
0.000165848
0.000166701
0.000167372
0.000167878
0.000168386
0.000168807
0.000169229
0.000169605
0.000170107
0.000170421
0.000171126
0.000166778
0.000167226
0.000167151
0.000166923
0.000166903
0.000167094
0.00016723
0.000167381
0.000167556
0.000167905
0.000168173
0.000168423
0.000168689
0.000168943
0.00016575
0.000166679
0.000167012
0.000167056
0.000166746
0.000166779
0.000166984
0.000167265
0.000167653
0.000168173
0.000169047
0.000165828
0.000166484
0.000166834
0.000167075
0.000167006
0.000167271
0.000167552
0.000167751
0.000167732
0.000167792
0.000167795
0.000168089
0.000168487
0.000169263
0.000165822
0.000166792
0.000167471
0.000167944
0.0001684
0.000168897
0.000169461
0.00016994
0.00017038
0.000170763
0.000171063
0.000166757
0.000167193
0.000167178
0.000167006
0.000166835
0.00016675
0.00016681
0.00016707
0.000167378
0.000167791
0.000168106
0.000168359
0.000168561
0.000168895
0.000165974
0.000167037
0.00016744
0.000167446
0.000166876
0.000166893
0.000167087
0.000167256
0.000167515
0.00016796
0.000168795
0.000165602
0.00016627
0.00016662
0.000166958
0.000166862
0.000167274
0.000167617
0.000167859
0.000167836
0.00016799
0.000167875
0.000168232
0.000168632
0.000169375
0.00016608
0.000166941
0.000167518
0.000168016
0.00016847
0.000168794
0.000169149
0.000169546
0.000170118
0.000170457
0.000171057
0.000166596
0.000167033
0.000167097
0.000166972
0.000167005
0.000167011
0.000167109
0.000167277
0.000167502
0.000167874
0.000168141
0.000168319
0.000168386
0.000168685
0.000165881
0.000166808
0.000167223
0.000167345
0.000166464
0.000166616
0.000166898
0.000167162
0.000167519
0.000167989
0.000168864
0.000165983
0.000166579
0.000166936
0.000167384
0.000167051
0.000167473
0.000167724
0.000167985
0.000167871
0.000167985
0.000167462
0.000167802
0.000168255
0.000169025
0.000166016
0.000166874
0.000167469
0.000168013
0.000168488
0.000169009
0.000169453
0.000169908
0.0001703
0.000170683
0.000171207
0.000166751
0.000167205
0.000167097
0.00016683
0.000166637
0.000166666
0.000166846
0.000167113
0.000167395
0.000167676
0.000167939
0.000168168
0.000168329
0.000168626
0.00016645
0.000167269
0.000167753
0.000167943
0.000166467
0.000166778
0.000167051
0.000167297
0.000167616
0.00016796
0.000168532
0.00016599
0.000166508
0.000166879
0.000167465
0.000166754
0.000167307
0.000167627
0.000168
0.000167853
0.000168259
0.000167276
0.00016774
0.00016813
0.000168846
0.000166483
0.000167242
0.000167773
0.000168114
0.000168379
0.000168678
0.000169212
0.000169744
0.000170322
0.000170757
0.000171176
0.000166521
0.000167148
0.000167307
0.000167146
0.000167028
0.00016705
0.000167125
0.000167279
0.000167537
0.000167807
0.000168011
0.000168198
0.000168299
0.000168235
0.000166932
0.000167366
0.000167737
0.000168364
0.000165946
0.000166502
0.000166796
0.000167036
0.00016737
0.000167692
0.000167928
0.000166457
0.000166707
0.000167027
0.00016748
0.000167108
0.000167602
0.00016794
0.000168285
0.000167899
0.000168558
0.000166727
0.000167543
0.000168051
0.000168377
0.000166933
0.000167239
0.00016767
0.000168126
0.000168601
0.000169017
0.000169532
0.000170015
0.000170435
0.000170851
0.000171328
0.000166609
0.000167386
0.000167496
0.00016714
0.00016687
0.000166793
0.000166879
0.000167046
0.000167318
0.000167654
0.000167874
0.000168067
0.000168145
0.000167968
0.000167264
0.000167578
0.000167993
0.000168812
0.000165767
0.000166527
0.00016687
0.000167147
0.000167452
0.000167691
0.000167729
0.000166833
0.00016689
0.00016716
0.000167469
0.000167346
0.000167637
0.000167963
0.000168388
0.000167999
0.000168935
0.000166661
0.000167463
0.000167918
0.000168052
0.000167372
0.000167526
0.000167846
0.000168266
0.000168709
0.000169071
0.000169532
0.000169969
0.000170365
0.000170722
0.000171137
0.00016603
0.000167251
0.000167459
0.000166977
0.000166631
0.000166575
0.000166655
0.000166916
0.000167268
0.00016765
0.000167893
0.000168056
0.00016812
0.000168045
0.000167719
0.000167921
0.000168265
0.000169128
0.000165679
0.000166467
0.000166817
0.000167081
0.000167365
0.000167552
0.000167519
0.000167041
0.000167054
0.0001672
0.000167394
0.000167359
0.000167674
0.000168112
0.000168636
0.00016805
0.000168953
0.000166378
0.000167259
0.000167774
0.000167928
0.000167564
0.000167638
0.000167829
0.000168213
0.000168515
0.000168878
0.000169313
0.000169868
0.000170253
0.000170745
0.000170732
0.000167292
0.000168273
0.000167889
0.000166962
0.000166519
0.000166363
0.000166423
0.000166776
0.000167294
0.000167685
0.00016782
0.000167954
0.000168048
0.000167959
0.000167914
0.000168188
0.000168539
0.000169015
0.000165528
0.000166278
0.000166679
0.000166935
0.000167154
0.000167312
0.000167324
0.000167116
0.000167259
0.000167522
0.000167727
0.00016774
0.000167691
0.00016787
0.000168309
0.000167736
0.000168484
0.000166078
0.000167086
0.000167705
0.000167882
0.000167614
0.000167482
0.000167745
0.000168239
0.000168658
0.000169026
0.000169489
0.000169868
0.000170412
0.000170557
0.000170998
0.00016471
0.000169277
0.000169073
0.000167604
0.000166834
0.000166604
0.000166503
0.000166612
0.000166946
0.000167253
0.00016748
0.000167651
0.000167793
0.000167753
0.00016778
0.000168071
0.000168657
0.00016915
0.000166161
0.000166918
0.000166932
0.000166923
0.000167131
0.000167269
0.000167223
0.000167061
0.000167159
0.000167399
0.000167659
0.000167815
0.000167926
0.000168195
0.000168316
0.000167489
0.000168026
0.000166075
0.000166985
0.000167634
0.000167883
0.00016793
0.000167482
0.000167639
0.00016834
0.000168684
0.000169154
0.000169791
0.000170217
0.000170389
0.000170777
0.000168106
0.00016745
0.00016757
0.000167631
0.000167049
0.000166519
0.000166088
0.000165978
0.000166426
0.000167028
0.000167366
0.000167489
0.000167599
0.000167718
0.000167779
0.000167935
0.000168354
0.000168818
0.000169039
0.000165908
0.000166639
0.000166971
0.000167117
0.000167123
0.000167199
0.000167325
0.000167354
0.000167375
0.000167401
0.00016737
0.000167582
0.00016761
0.000167827
0.000168338
0.000167686
0.000168387
0.000165888
0.00016691
0.000167454
0.00016778
0.00016789
0.00016802
0.000168343
0.000168652
0.000168907
0.000169199
0.000169592
0.000169729
0.000170138
0.000170109
0.000170891
0.000166162
0.000167788
0.000167618
0.000166932
0.000166418
0.000166194
0.000166189
0.00016637
0.000166756
0.000167234
0.000167673
0.000167937
0.000167979
0.000167993
0.00016815
0.000168502
0.000168947
0.000169406
0.000165409
0.00016627
0.000166481
0.000166538
0.000166783
0.000167004
0.000167148
0.000167277
0.000167415
0.000167552
0.000167657
0.000167828
0.000168093
0.000168557
0.000168894
0.000168099
0.000168732
0.000165826
0.000166819
0.000167225
0.000167409
0.000167554
0.000167627
0.000167807
0.000168209
0.000168645
0.0001691
0.000169547
0.00017001
0.000170317
0.000170887
0.000170477
0.000166792
0.000167539
0.000167282
0.00016675
0.000166275
0.000165926
0.00016581
0.000165951
0.000166245
0.000166789
0.000167168
0.000167299
0.000167459
0.000167739
0.000168017
0.000168474
0.000168982
0.000169623
0.000165404
0.000166174
0.000166784
0.000167254
0.000167501
0.000167577
0.000167611
0.000167618
0.000167569
0.000167444
0.000167325
0.000167348
0.000167561
0.000167889
0.000168291
0.000167672
0.00016856
0.000165732
0.000166784
0.000167445
0.000167833
0.000168034
0.000168212
0.000168501
0.000168822
0.000169041
0.000169209
0.000169466
0.000169646
0.000170102
0.00017043
0.000170949
0.000167232
0.000167148
0.000166578
0.000166155
0.000165822
0.000165616
0.000165589
0.000165772
0.000166263
0.000166959
0.000167608
0.000168086
0.000168365
0.000168548
0.000168704
0.000168999
0.000169295
0.000169644
0.000164986
0.000165634
0.000166059
0.000166267
0.000166447
0.000166709
0.000167022
0.000167266
0.000167438
0.000167571
0.00016769
0.000167844
0.000168149
0.000168606
0.000169128
0.00016853
0.000169182
0.000165762
0.000166661
0.000167234
0.000167558
0.000167824
0.000167988
0.000167952
0.000168159
0.000168538
0.00016889
0.000169359
0.000169761
0.000170389
0.000170842
0.000171583
0.000165546
0.000166206
0.000166537
0.000166593
0.000166369
0.000166024
0.000165639
0.000165432
0.000165857
0.00016674
0.000167279
0.000167343
0.000167298
0.000167385
0.000167664
0.000168123
0.000168588
0.000169277
0.00016506
0.000165859
0.000166472
0.000166993
0.000167384
0.000167671
0.00016787
0.000167906
0.000167765
0.000167569
0.000167319
0.000167398
0.000167746
0.000168062
0.000168522
0.000167906
0.000168801
0.000165832
0.000166831
0.000167566
0.000168081
0.000168369
0.000168424
0.000168367
0.000168637
0.000169112
0.000169588
0.000170053
0.000170368
0.00017063
0.000170805
0.000170882
0.000167089
0.000166891
0.000165895
0.000165157
0.000164843
0.000164569
0.000164567
0.000164568
0.000165323
0.000166566
0.000167447
0.000167835
0.000168006
0.000168163
0.000168374
0.000168691
0.000169001
0.000169478
0.000164919
0.0001656
0.000166174
0.000166611
0.000166981
0.000167317
0.000167497
0.000167618
0.000167691
0.000167667
0.000167527
0.000167726
0.000168011
0.000168295
0.000168716
0.00016824
0.000169417
0.000166697
0.000167655
0.000168133
0.000168406
0.000168548
0.000168564
0.000168083
0.000167955
0.000167962
0.000168171
0.000168686
0.000169161
0.000169783
0.000170318
0.000171199
0.00016512
0.000165327
0.000165324
0.000165417
0.000165043
0.000164844
0.00016437
0.000165373
0.000166133
0.000167587
0.00016826
0.000168267
0.00016808
0.000167834
0.000167906
0.000168178
0.000168566
0.00016931
0.00016523
0.000166078
0.000166771
0.000167304
0.000167628
0.00016778
0.000168024
0.000168409
0.000168724
0.000168526
0.000167502
0.000167526
0.000167607
0.000167877
0.000168228
0.00016767
0.000168427
0.000165986
0.000166964
0.00016759
0.000168127
0.000168646
0.000168994
0.000167513
0.000167461
0.000167747
0.00016827
0.000169021
0.000169647
0.000170134
0.000170395
0.000170538
0.000166534
0.000166576
0.000166002
0.000165511
0.000165141
0.000164898
0.000165069
0.000165922
0.000165061
0.00016675
0.000167879
0.000168546
0.000168675
0.000167634
0.000167563
0.000168023
0.00016872
0.000169663
0.000166247
0.000166789
0.000167078
0.000167317
0.000167639
0.000167919
0.000168044
0.00016812
0.000168279
0.000168044
0.000165684
0.000166548
0.000167076
0.000167554
0.000167714
0.000167356
0.000167338
0.000167028
0.0001678
0.000168501
0.000168973
0.000169428
0.000170287
0.000166578
0.000167295
0.000167801
0.000168235
0.000168763
0.000169232
0.00016982
0.000170189
0.000170892
0.000165852
0.000166095
0.000166039
0.000165767
0.000165385
0.0001652
0.000165428
0.000165825
0.000166218
0.000167375
0.000168237
0.000168649
0.000169401
0.000166155
0.000166796
0.000167088
0.000167304
0.0001672
0.000166227
0.000166536
0.000167124
0.000167703
0.000168106
0.000168202
0.000168123
0.000168234
0.000169249
0.000166336
0.000166383
0.000166579
0.000166884
0.000167311
0.000167617
0.000167621
0.000167532
0.000167473
0.0001678
0.00016833
0.000168868
0.000169424
0.000170373
0.000166397
0.000167293
0.000167796
0.000168091
0.000168441
0.00016897
0.00016965
0.000170193
0.000170487
0.000166767
0.000167168
0.000167202
0.000167112
0.000167085
0.000167121
0.000167201
0.000167408
0.000167711
0.0001681
0.000168468
0.000168856
0.000169009
0.000168698
0.000165718
0.000166392
0.000166672
0.000166784
0.0001668
0.000166827
0.000167032
0.000167416
0.000167924
0.000168513
0.000169293
0.000165741
0.000166298
0.000166628
0.000166813
0.000166916
0.000167098
0.000167277
0.000167455
0.000167657
0.000167917
0.000168214
0.00016855
0.000168936
0.000169554
0.000165726
0.00016657
0.000167304
0.000167958
0.000168545
0.000169019
0.000169425
0.000169734
0.000170159
0.000170558
0.000171039
0.000166743
0.000167162
0.000167194
0.0001671
0.000167084
0.000167115
0.000167178
0.000167367
0.000167666
0.00016807
0.000168461
0.000168861
0.000168998
0.000168659
0.000165665
0.000166356
0.000166656
0.000166792
0.000166817
0.000166855
0.000167064
0.000167445
0.000167953
0.000168541
0.000169319
0.000165746
0.000166299
0.000166625
0.000166821
0.000166934
0.000167125
0.000167319
0.000167483
0.000167665
0.000167917
0.000168218
0.000168588
0.000168994
0.000169605
0.000165748
0.000166588
0.00016731
0.000167959
0.000168545
0.000169018
0.000169418
0.000169707
0.000170104
0.000170499
0.000170996
0.000166778
0.000167197
0.000167235
0.000167123
0.000167104
0.000167164
0.000167263
0.000167488
0.000167796
0.000168174
0.000168498
0.000168883
0.000169072
0.00016873
0.000165713
0.000166376
0.000166676
0.00016684
0.000166857
0.000166889
0.000167085
0.000167483
0.000168018
0.000168591
0.000169343
0.000165734
0.000166317
0.000166683
0.000166883
0.000166969
0.000167168
0.000167377
0.000167538
0.000167743
0.000167978
0.00016824
0.00016856
0.000168924
0.000169542
0.000165721
0.00016664
0.000167394
0.000168049
0.000168615
0.000169077
0.000169464
0.000169763
0.000170199
0.000170604
0.000171083
0.000166702
0.000167185
0.000167237
0.00016709
0.000167054
0.000167088
0.000167174
0.000167409
0.000167726
0.00016811
0.00016849
0.000168883
0.000169078
0.000168729
0.00016569
0.000166373
0.000166706
0.000166881
0.000166898
0.00016691
0.000167098
0.000167494
0.00016802
0.000168573
0.00016935
0.0001657
0.000166289
0.00016663
0.000166851
0.000166933
0.000167148
0.000167362
0.000167528
0.000167726
0.000167971
0.000168254
0.000168607
0.000169015
0.000169665
0.000165809
0.000166686
0.000167417
0.000168079
0.000168629
0.000169042
0.00016942
0.000169704
0.000170129
0.000170516
0.000170982
0.000166658
0.000167186
0.000167237
0.000167071
0.000167038
0.000167114
0.000167227
0.000167477
0.000167802
0.000168187
0.000168501
0.000168863
0.000169056
0.000168682
0.000165604
0.000166268
0.000166603
0.000166795
0.000166863
0.000166883
0.000167078
0.0001675
0.000168029
0.00016859
0.000169419
0.00016577
0.000166374
0.000166715
0.000166892
0.000166983
0.000167152
0.000167318
0.000167523
0.000167726
0.000167953
0.000168227
0.000168575
0.000168983
0.000169621
0.000165706
0.000166623
0.000167377
0.000168065
0.000168636
0.000169087
0.000169465
0.000169742
0.000170166
0.000170537
0.000171004
0.000166628
0.000167235
0.000167247
0.000166998
0.00016691
0.000166938
0.000167072
0.000167379
0.000167749
0.000168113
0.000168444
0.000168831
0.000169079
0.000168711
0.000165707
0.000166425
0.000166795
0.000166941
0.000166924
0.000166915
0.000167107
0.000167471
0.000168
0.000168574
0.000169421
0.000165726
0.000166352
0.000166692
0.000166856
0.000166863
0.000167034
0.000167224
0.000167438
0.000167673
0.000167958
0.000168243
0.000168587
0.000169011
0.000169686
0.000165784
0.000166685
0.000167453
0.000168092
0.000168597
0.000168958
0.000169322
0.000169659
0.000170169
0.000170556
0.000170943
0.000166576
0.000167354
0.000167354
0.000167079
0.000166991
0.000167056
0.000167179
0.000167444
0.000167791
0.000168127
0.00016845
0.000168834
0.000169071
0.000168644
0.000165607
0.000166336
0.000166734
0.00016688
0.000166884
0.000166878
0.00016704
0.000167413
0.000167939
0.000168539
0.000169439
0.000165763
0.000166411
0.000166769
0.000166914
0.000166995
0.000167146
0.000167289
0.000167487
0.000167664
0.000167857
0.00016811
0.000168511
0.000168988
0.000169681
0.000165717
0.000166585
0.00016736
0.000168037
0.00016859
0.000169051
0.000169468
0.000169774
0.000170223
0.00017057
0.000170878
0.000166562
0.000167532
0.00016745
0.000166989
0.000166906
0.000166957
0.000167108
0.000167414
0.000167783
0.000168136
0.000168438
0.000168809
0.000169048
0.000168609
0.000165626
0.00016643
0.000166853
0.000166999
0.000166927
0.000166942
0.000167156
0.000167515
0.000167979
0.000168531
0.000169362
0.000165669
0.000166346
0.000166703
0.000166856
0.000166915
0.000167051
0.000167252
0.000167477
0.000167709
0.000167985
0.000168274
0.000168617
0.000169077
0.000169754
0.000165782
0.00016659
0.000167374
0.000168025
0.000168565
0.000169002
0.000169415
0.000169739
0.000170229
0.000170551
0.000170709
0.000166453
0.000167608
0.000167537
0.000167012
0.000166826
0.000166863
0.000167055
0.000167376
0.000167769
0.000168111
0.000168454
0.000168842
0.000169112
0.000168602
0.000165721
0.00016656
0.000167003
0.000167117
0.000166999
0.000166989
0.000167142
0.00016746
0.00016793
0.000168551
0.000169333
0.000165728
0.000166414
0.000166753
0.000166908
0.000166952
0.000167073
0.000167271
0.000167513
0.000167695
0.000167892
0.000168151
0.000168568
0.000169116
0.000169789
0.000165886
0.000166683
0.000167423
0.000168123
0.000168604
0.000169015
0.000169417
0.000169746
0.000170237
0.000170567
0.000170572
0.000166974
0.000168042
0.000167776
0.000167101
0.000166923
0.000166959
0.000167139
0.000167418
0.000167799
0.000168096
0.000168405
0.000168769
0.000169127
0.000168503
0.000165764
0.000166712
0.000167124
0.000167168
0.000167028
0.000167032
0.000167169
0.000167492
0.000167918
0.000168524
0.000169168
0.000165709
0.000166463
0.000166814
0.000167013
0.000167074
0.000167162
0.00016734
0.000167596
0.000167784
0.000168025
0.000168227
0.000168521
0.00016911
0.00016974
0.000165795
0.000166571
0.000167412
0.0001681
0.00016867
0.000169156
0.00016963
0.000169909
0.000170546
0.000170551
0.00017051
0.000166039
0.000168193
0.000168125
0.000167262
0.000166974
0.000166982
0.000167115
0.000167313
0.000167665
0.000168011
0.000168331
0.000168674
0.000169064
0.000168276
0.000165793
0.000166799
0.000167278
0.000167386
0.000167161
0.00016719
0.000167322
0.000167569
0.000168009
0.000168657
0.000169055
0.000165935
0.000166613
0.000166864
0.000166938
0.000166959
0.000167132
0.000167356
0.000167584
0.000167733
0.000167921
0.000168125
0.000168558
0.000169256
0.000169833
0.000166145
0.000166733
0.000167486
0.000168159
0.000168748
0.000169237
0.000169683
0.000169885
0.000170514
0.00017083
0.000169659
0.000166819
0.000167563
0.000167649
0.000167126
0.000166935
0.000166962
0.000167139
0.000167405
0.000167734
0.000168073
0.000168467
0.000168797
0.000169087
0.000168366
0.000165955
0.000166843
0.000167195
0.000167215
0.000167014
0.000167076
0.000167301
0.000167542
0.000167969
0.000168564
0.000169036
0.000166005
0.000166639
0.000166976
0.000167106
0.000167041
0.000167132
0.000167413
0.000167712
0.000167876
0.000168053
0.000168087
0.000168417
0.000169007
0.000169631
0.000165991
0.000166838
0.000167594
0.000168236
0.000168772
0.000169219
0.000169691
0.000169993
0.000170591
0.000170446
0.000170413
0.000166644
0.000167871
0.000167779
0.000167269
0.000167056
0.000167034
0.000167157
0.000167377
0.000167713
0.000168063
0.000168469
0.000168802
0.000169108
0.000168507
0.00016604
0.000167008
0.000167381
0.000167386
0.000166984
0.000167052
0.000167206
0.000167429
0.000167912
0.000168528
0.000169104
0.000165812
0.000166626
0.000167013
0.00016716
0.000167034
0.000167253
0.000167567
0.000167863
0.00016803
0.000168206
0.000168104
0.000168451
0.000169043
0.000169725
0.000166034
0.000166899
0.00016761
0.000168235
0.000168764
0.000169226
0.000169697
0.000170029
0.000170464
0.000170896
0.00017059
0.000166695
0.0001678
0.000167748
0.000167325
0.000167114
0.000167041
0.000167096
0.000167288
0.000167618
0.000167994
0.000168309
0.000168551
0.000168956
0.00016861
0.000166034
0.000167029
0.000167472
0.00016747
0.000166926
0.000167012
0.000167248
0.000167523
0.000167984
0.000168547
0.000169228
0.000165792
0.000166617
0.000167059
0.000167291
0.000167039
0.000167315
0.0001676
0.000167914
0.000168065
0.000168237
0.00016794
0.000168297
0.000168858
0.000169586
0.000166068
0.000167042
0.00016783
0.000168461
0.000168907
0.000169295
0.000169716
0.000169995
0.000170461
0.000170653
0.000170737
0.000166944
0.000167679
0.000167535
0.000167185
0.000167014
0.000166987
0.000167093
0.000167308
0.000167649
0.000167986
0.000168349
0.000168646
0.00016902
0.000168968
0.000166308
0.000167255
0.000167654
0.000167685
0.000166767
0.000166913
0.000167121
0.000167367
0.000167813
0.000168322
0.000168924
0.000165756
0.00016657
0.000167061
0.00016737
0.000166875
0.000167369
0.000167832
0.000168248
0.000168415
0.000168559
0.000167798
0.000168142
0.000168698
0.000169432
0.000166095
0.000167003
0.000167672
0.000168169
0.00016863
0.000169068
0.000169606
0.000169963
0.000170425
0.000170845
0.000171193
0.000166558
0.0001674
0.000167571
0.000167383
0.000167218
0.000167145
0.000167151
0.000167271
0.00016753
0.000167927
0.000168223
0.00016837
0.000168601
0.000168648
0.00016643
0.000167163
0.000167629
0.0001678
0.000166373
0.00016664
0.000166941
0.000167366
0.000167947
0.000168487
0.00016904
0.000166247
0.000166793
0.000167237
0.000167667
0.000166706
0.000167397
0.000167735
0.000168062
0.000168205
0.000168474
0.000167216
0.000167833
0.0001684
0.000169096
0.000166472
0.000167152
0.000167787
0.000168364
0.00016889
0.000169328
0.000169826
0.000170145
0.000170497
0.000170855
0.000171251
0.000167177
0.0001676
0.000167325
0.000167065
0.000166891
0.000166762
0.000166758
0.00016696
0.000167321
0.000167659
0.000167896
0.000168214
0.000168633
0.000168766
0.000167504
0.000167772
0.000168118
0.000168529
0.000165938
0.000166652
0.000166968
0.00016723
0.000167652
0.000168044
0.00016804
0.000166285
0.00016666
0.000167134
0.000167474
0.000166997
0.000167513
0.000167915
0.000168277
0.000168494
0.000169245
0.000166947
0.000167892
0.000168323
0.000168545
0.000166943
0.000167297
0.000167824
0.000168197
0.000168588
0.000169067
0.000169562
0.000169796
0.000170213
0.000170587
0.000171348
0.000166316
0.000166926
0.000167179
0.000167238
0.000167228
0.000167151
0.000167101
0.00016717
0.000167404
0.000167706
0.000167915
0.000168089
0.000168308
0.000168249
0.000167507
0.000167547
0.00016792
0.000168617
0.000165616
0.000166434
0.000166848
0.000167283
0.000167683
0.000167878
0.000167802
0.000166854
0.000167051
0.000167427
0.000167595
0.000167242
0.000167572
0.000167964
0.000168342
0.000168386
0.000169293
0.000166418
0.000167416
0.000167792
0.00016793
0.000167188
0.000167316
0.00016748
0.000167865
0.000168594
0.000169334
0.000169935
0.000170215
0.000170498
0.000170855
0.000171146
0.00016702
0.00016749
0.000167348
0.000167035
0.000166786
0.000166533
0.000166496
0.000166739
0.000167086
0.000167443
0.000167741
0.000168044
0.000168332
0.000168297
0.000167827
0.000167827
0.000168181
0.00016903
0.000165707
0.000166391
0.000166698
0.000167069
0.000167483
0.000167654
0.000167364
0.000166824
0.000166978
0.000167206
0.000167256
0.000167194
0.000167619
0.000167871
0.000167983
0.000168154
0.000169368
0.000166427
0.000167537
0.000167903
0.000167876
0.000167386
0.000167506
0.000167762
0.000168209
0.000168728
0.000169155
0.000169475
0.00016973
0.000170236
0.000170559
0.000171059