/*--------------------------------*- C++ -*----------------------------------*\
| =========                 |                                                 |
| \\      /  F ield         | OpenFOAM: The Open Source CFD Toolbox           |
|  \\    /   O peration     | Version:  2.3.0                                 |
|   \\  /    A nd           | Web:      www.OpenFOAM.org                      |
|    \\/     M anipulation  |                                                 |
\*---------------------------------------------------------------------------*/
FoamFile
{
    version     2.0;
    format      ascii;
    class       volVectorField;
    location    "100";
    object      U;
}
// * * * * * * * * * * * * * * * * * * * * * * * * * * * * * * * * * * * * * //

dimensions      [0 1 -1 0 0 0 0];

internalField   nonuniform List<vector> 
90000
(
(0.0113442 -1.46564e-06 -2.75967e-05)
(0.0113308 6.32784e-06 -0.000135162)
(0.0112086 5.97921e-06 -0.000116666)
(0.0108909 9.09821e-06 -0.000103969)
(0.0106947 5.23276e-06 -0.000391976)
(0.0105374 -1.52154e-05 -0.00051762)
(0.0104616 -1.55839e-05 -0.000464894)
(0.0102155 -9.98382e-06 -0.000460598)
(0.0100135 -2.00812e-05 -0.000307703)
(0.0097168 -1.97987e-05 -8.29189e-05)
(0.00948702 -1.33036e-05 4.854e-05)
(0.00906626 -1.38751e-05 5.60055e-05)
(0.00872547 -1.15928e-05 0.000120136)
(0.00832259 -2.85229e-06 8.51404e-05)
(0.00806439 2.61358e-06 -0.000123727)
(0.00792557 -1.48816e-05 -0.000140796)
(0.00793538 -9.25937e-06 -4.01002e-05)
(0.00780205 -5.14165e-06 5.03925e-05)
(0.00781803 -1.46574e-05 0.000120257)
(0.00781624 -9.94878e-06 0.000140684)
(0.00784171 -8.84166e-06 0.000146198)
(0.00788469 1.32468e-06 0.000131079)
(0.00798656 1.36839e-06 7.1539e-05)
(0.00807806 4.68533e-06 2.93057e-05)
(0.00827147 1.07053e-05 0.00011719)
(0.00852464 3.03029e-06 0.000244944)
(0.00875549 1.3337e-05 0.000287644)
(0.00891307 1.2104e-05 0.000234137)
(0.00903336 4.0019e-06 0.000143363)
(0.00907787 5.0324e-06 -1.32219e-05)
(0.00917562 -5.63239e-06 -0.000291376)
(0.00918017 4.21848e-06 -0.000522964)
(0.00907731 1.60954e-05 -0.000687325)
(0.00898698 1.60499e-05 -0.00078565)
(0.00917197 1.02239e-05 -0.000706022)
(0.00939971 -8.87117e-06 -0.000446972)
(0.00975133 -1.11255e-05 -0.000172508)
(0.00979219 -3.0415e-06 8.97444e-05)
(0.00984449 -9.46891e-06 0.000200068)
(0.0097521 -2.74143e-06 0.000302834)
(0.00973394 -6.54804e-06 0.000467853)
(0.00982291 -2.04747e-05 0.000603791)
(0.010001 -1.90559e-06 0.000711981)
(0.010042 9.58602e-06 0.000609652)
(0.0103326 -5.60412e-06 0.000433424)
(0.0107343 -1.00992e-05 0.000272916)
(0.0110197 -2.55127e-06 0.000159614)
(0.0111618 3.58275e-06 1.77594e-05)
(0.0111954 9.43094e-06 -0.000169032)
(0.0112094 1.51473e-06 -0.000140675)
(0.0342263 -5.06525e-05 7.88457e-05)
(0.0344932 -2.19854e-05 -0.000251896)
(0.0344942 -2.6259e-05 -0.000224528)
(0.0337525 -2.51559e-05 -9.50246e-05)
(0.0335002 -5.54932e-05 -0.00072529)
(0.0331067 -0.000122422 -0.00111281)
(0.0326538 -0.000107358 -0.00112238)
(0.0320331 -7.57238e-05 -0.00120775)
(0.0315935 -0.000104071 -0.000879807)
(0.0305334 -8.97327e-05 -0.000327116)
(0.0296988 -6.8706e-05 -8.99665e-06)
(0.0283566 -7.70418e-05 8.38523e-05)
(0.0271748 -6.54333e-05 0.000263507)
(0.0258629 -3.36373e-05 0.000165956)
(0.0251892 -2.63194e-05 -0.000255203)
(0.024596 -8.31298e-05 -0.000225774)
(0.0242914 -5.25176e-05 2.53552e-05)
(0.023876 -3.81962e-05 0.000214895)
(0.0237929 -6.10574e-05 0.000321778)
(0.0236542 -3.56038e-05 0.000316019)
(0.0235956 -2.20354e-05 0.000282345)
(0.0236843 2.36656e-05 0.000270363)
(0.0240206 2.86234e-05 0.000181979)
(0.0242546 4.51644e-05 0.000205627)
(0.0248389 6.40321e-05 0.000511107)
(0.0254389 3.98663e-05 0.000727426)
(0.0260054 7.01294e-05 0.000709448)
(0.0266367 5.527e-05 0.000551555)
(0.0271206 2.36597e-05 0.000255656)
(0.0273902 1.62675e-05 -0.000201313)
(0.0277267 -1.98695e-05 -0.000769476)
(0.0277009 2.05182e-05 -0.00120356)
(0.0275761 5.40173e-05 -0.00160876)
(0.0273945 3.46198e-05 -0.00193665)
(0.027987 5.72428e-08 -0.00186982)
(0.0283937 -5.47968e-05 -0.00131617)
(0.0291496 -4.76215e-05 -0.00074581)
(0.0293659 -1.41155e-05 -0.000132403)
(0.029581 -2.96176e-05 0.000264332)
(0.0294549 -1.69258e-05 0.000618626)
(0.0296236 -4.23052e-05 0.00110097)
(0.029644 -8.30544e-05 0.00148689)
(0.0300038 -2.47896e-05 0.00176302)
(0.0303698 -1.47023e-05 0.00162437)
(0.031109 -7.75825e-05 0.00138111)
(0.0319493 -8.33128e-05 0.00104509)
(0.0326029 -4.4584e-05 0.000774575)
(0.0330697 -1.91873e-05 0.000470374)
(0.0334852 -5.03883e-06 -4.99079e-05)
(0.0337183 -3.68079e-05 -0.0001099)
(0.0565224 -0.000199086 0.000564082)
(0.0576168 -0.000163564 1.41172e-05)
(0.0586027 -0.00015438 -0.000279625)
(0.0579155 -0.000144869 0.000233632)
(0.0577726 -0.000204075 -0.000210738)
(0.0573475 -0.000305332 -0.000908005)
(0.0565373 -0.000262471 -0.0011721)
(0.0556181 -0.000189218 -0.00168091)
(0.0553347 -0.000219702 -0.00168499)
(0.0539271 -0.00017631 -0.000960568)
(0.0528779 -0.000149446 -0.000397605)
(0.0509618 -0.000166145 -0.000149212)
(0.0488381 -0.000132179 0.00026508)
(0.0462017 -7.6232e-05 0.000359953)
(0.0447739 -8.22396e-05 -0.000220141)
(0.0432925 -0.00018534 -0.000360575)
(0.042114 -0.000119881 -3.03595e-05)
(0.0410966 -9.84166e-05 0.000305591)
(0.0405007 -0.000126462 0.000490049)
(0.0400612 -7.07408e-05 0.000480323)
(0.0396358 -3.86083e-05 0.00034877)
(0.0394938 5.99513e-05 0.000323722)
(0.039893 8.3021e-05 0.000209237)
(0.0401155 0.000124053 0.0001826)
(0.0409455 0.000160627 0.000711822)
(0.0417503 0.000129229 0.00118271)
(0.0425453 0.00017862 0.00118961)
(0.0436051 0.000128671 0.00105443)
(0.0446734 5.96988e-05 0.000735532)
(0.0454909 2.71653e-05 4.62005e-05)
(0.0463115 -4.02537e-05 -0.000745513)
(0.0464846 3.9723e-05 -0.00124405)
(0.0466271 0.000102779 -0.00180141)
(0.0460486 6.74119e-05 -0.00247699)
(0.0466241 -7.59673e-07 -0.00286608)
(0.0468495 -0.000100914 -0.00241667)
(0.047775 -9.81919e-05 -0.00186008)
(0.0483973 -4.40809e-05 -0.00122688)
(0.0489361 -5.70586e-05 -0.000586885)
(0.0490536 -3.05129e-05 -4.13218e-06)
(0.0496603 -9.26099e-05 0.000753416)
(0.04948 -0.000155457 0.00150941)
(0.0497065 -7.16463e-05 0.00220197)
(0.0503207 -8.12903e-05 0.00229484)
(0.0511755 -0.000202085 0.00230626)
(0.0521183 -0.00022327 0.0020978)
(0.0530871 -0.000156091 0.00176488)
(0.0538137 -0.000116033 0.00159193)
(0.0548967 -8.45269e-05 0.000883076)
(0.055519 -0.00013795 0.000377766)
(0.0756333 -0.000420435 0.00171499)
(0.0773692 -0.000435699 0.00103514)
(0.079864 -0.000417961 -0.000185807)
(0.0803231 -0.000391359 0.000203145)
(0.0807504 -0.000467775 0.000511845)
(0.0806485 -0.000577755 7.45976e-05)
(0.079838 -0.000491186 -0.000170724)
(0.0784776 -0.000373304 -0.00105998)
(0.0784899 -0.000380188 -0.00210674)
(0.0775159 -0.000279206 -0.00184079)
(0.0770864 -0.000242988 -0.00117096)
(0.0757426 -0.000257927 -0.000875242)
(0.0737224 -0.000185561 -0.000210778)
(0.0699883 -9.943e-05 0.000451146)
(0.0676031 -0.000115798 4.61114e-05)
(0.0651085 -0.000269287 -0.000412995)
(0.0624216 -0.000189141 -0.000275271)
(0.0602515 -0.000182444 0.000174752)
(0.0584277 -0.000222118 0.000561585)
(0.0572533 -0.000131107 0.00070261)
(0.0560651 -9.08227e-05 0.000470326)
(0.0552293 5.55022e-05 0.000321766)
(0.0552929 0.000109203 0.000199017)
(0.0551987 0.000188048 -5.37391e-05)
(0.0560416 0.000257933 0.000476413)
(0.0568965 0.000248195 0.00139996)
(0.0577946 0.000349713 0.00167624)
(0.0588774 0.000273751 0.00166342)
(0.0603241 0.000144127 0.00163715)
(0.0618169 5.13129e-05 0.00093567)
(0.0634476 -6.53736e-05 -0.000233138)
(0.0640914 4.27669e-05 -0.000750983)
(0.065146 0.00014862 -0.00119461)
(0.0644816 0.000133784 -0.00200438)
(0.0645974 4.71917e-05 -0.00303138)
(0.0641631 -9.33257e-05 -0.00307962)
(0.0644792 -0.000114184 -0.00276219)
(0.0651743 -7.65127e-05 -0.00266505)
(0.065983 -9.95373e-05 -0.00228587)
(0.0664439 -5.86705e-05 -0.00167186)
(0.0679285 -0.000144536 -0.000837998)
(0.0682453 -0.000192027 0.000157028)
(0.0683488 -7.80379e-05 0.00140691)
(0.0690348 -0.000113143 0.00184566)
(0.0698841 -0.000297617 0.00226626)
(0.0703894 -0.000358658 0.00278553)
(0.0714053 -0.000275932 0.00262831)
(0.0718812 -0.00026658 0.00275233)
(0.0732894 -0.000244832 0.00255366)
(0.0743185 -0.000286421 0.0017369)
(0.0901814 -0.000625529 0.00354003)
(0.091858 -0.000726764 0.0030855)
(0.0950617 -0.000756064 0.000832985)
(0.0969955 -0.000765725 -0.000125326)
(0.0986873 -0.000874746 0.000229822)
(0.0992208 -0.000962113 0.000519173)
(0.0990017 -0.000786859 0.000998849)
(0.0973228 -0.0006064 0.000757681)
(0.0971124 -0.000598003 -0.00110321)
(0.0967413 -0.000414207 -0.00215558)
(0.0974284 -0.000348163 -0.00182863)
(0.0974058 -0.000396458 -0.00183493)
(0.0972712 -0.000284012 -0.00143421)
(0.0943206 -0.000150247 -0.000201897)
(0.0917946 -0.000147025 0.000162427)
(0.0892728 -0.000281051 -0.000161871)
(0.0855679 -0.00016394 -0.000380826)
(0.0823404 -0.000209307 -0.000207283)
(0.0787831 -0.000306386 0.00026846)
(0.0762398 -0.000195076 0.000805481)
(0.0738415 -0.000157093 0.000739189)
(0.0717329 -4.34632e-06 0.000349174)
(0.0708984 6.06861e-05 0.000216942)
(0.0698693 0.000172968 -0.000167676)
(0.0702034 0.000261227 -1.99696e-05)
(0.0707614 0.000272587 0.00108324)
(0.0717247 0.000484144 0.00186672)
(0.0725663 0.000469887 0.00202693)
(0.0738155 0.000341004 0.00241612)
(0.0753935 0.000176069 0.00230963)
(0.0776816 -3.37253e-05 0.00081695)
(0.0787213 5.36147e-05 5.2506e-05)
(0.0809816 0.000139244 -0.00010901)
(0.0815093 0.000183627 -0.000689914)
(0.0817195 0.000133323 -0.0020997)
(0.0807151 -4.15834e-06 -0.00280849)
(0.0797312 1.185e-05 -0.00253669)
(0.0795193 2.27968e-05 -0.00297306)
(0.0798435 -5.45554e-05 -0.00358792)
(0.0799834 -5.49621e-05 -0.00351389)
(0.0818099 -0.000232393 -0.00288558)
(0.0832446 -0.000275866 -0.00213833)
(0.0842507 -4.68757e-05 -0.000622488)
(0.085313 -7.95957e-05 8.93569e-05)
(0.0866674 -0.000295868 0.000410145)
(0.0867043 -0.000376265 0.00185078)
(0.087538 -0.000261083 0.00261408)
(0.0875247 -0.00028324 0.00293228)
(0.0883694 -0.000382698 0.0035955)
(0.0890996 -0.000446332 0.0034665)
(0.101334 -0.000687186 0.00497796)
(0.102068 -0.000883391 0.00560931)
(0.104991 -0.000970126 0.00314818)
(0.107419 -0.00109533 0.00050955)
(0.110266 -0.00131536 -0.000611168)
(0.11148 -0.00137147 -0.000433306)
(0.111817 -0.00106934 0.000783316)
(0.110216 -0.000768875 0.00203337)
(0.109427 -0.000760432 0.000880841)
(0.109042 -0.000536771 -0.00145069)
(0.110772 -0.000388904 -0.00188209)
(0.111795 -0.000493901 -0.00208395)
(0.113504 -0.00043092 -0.00260955)
(0.112727 -0.000300271 -0.00173193)
(0.111133 -0.000312485 -0.000723365)
(0.109848 -0.000400224 -0.000229447)
(0.106845 -0.000140895 -7.75245e-05)
(0.104405 -0.00013708 -0.000273834)
(0.100546 -0.000268599 -0.000397165)
(0.0970931 -0.000153617 0.000246027)
(0.0937587 -0.00010217 0.000860363)
(0.090224 1.54052e-05 0.00046931)
(0.0882269 4.04791e-06 8.01917e-05)
(0.0857125 0.000102451 -0.000187733)
(0.0848282 0.000171623 -0.00023014)
(0.0841897 0.000142583 0.000518986)
(0.0846315 0.000397263 0.0015743)
(0.0850669 0.000460641 0.00200899)
(0.0858572 0.000467813 0.00243459)
(0.0870288 0.000402329 0.0032859)
(0.0892871 0.000186689 0.00219564)
(0.0901934 0.000262601 0.0011225)
(0.0925158 0.000181637 0.00125889)
(0.0946443 0.000109278 0.00120694)
(0.0963392 0.0001273 -0.00021917)
(0.0959607 8.62295e-05 -0.00188805)
(0.0941391 0.000244254 -0.00165444)
(0.0927939 0.000314986 -0.00163008)
(0.0920987 0.000232825 -0.00306735)
(0.0911635 0.00022873 -0.00418429)
(0.0919406 -9.92433e-05 -0.00403092)
(0.0931315 -0.000315007 -0.00389695)
(0.0951056 -4.5335e-05 -0.00282246)
(0.0968936 -7.14003e-05 -0.00187265)
(0.0992819 -0.000302192 -0.00217695)
(0.0998392 -0.000338668 -0.00102227)
(0.100966 -0.000120563 0.000935613)
(0.101208 -4.26201e-05 0.00185538)
(0.101576 -0.000244814 0.00286163)
(0.101464 -0.000433952 0.00389191)
(0.11141 -0.000445537 0.0046079)
(0.110371 -0.000791638 0.00723707)
(0.112267 -0.000982776 0.00586667)
(0.114371 -0.00123307 0.00247538)
(0.117577 -0.00162747 -0.000511645)
(0.119389 -0.00166619 -0.00183303)
(0.119965 -0.00116544 -0.000828781)
(0.118301 -0.000703249 0.00157619)
(0.116934 -0.000676242 0.00233022)
(0.115887 -0.000514804 -0.000163345)
(0.118031 -0.00031127 -0.00165716)
(0.119668 -0.00040276 -0.00161409)
(0.122126 -0.000435235 -0.00253083)
(0.123381 -0.000411328 -0.00278841)
(0.122734 -0.000507503 -0.00220876)
(0.12246 -0.000606751 -0.00134898)
(0.120218 -0.000270332 -0.000235005)
(0.11882 -0.000204286 0.000242754)
(0.11648 -0.000293155 -0.000526473)
(0.114278 -0.000124035 -0.00102479)
(0.11219 6.67755e-05 -3.23618e-05)
(0.108899 0.00027912 0.00045689)
(0.106945 0.000168064 -0.000185675)
(0.103606 0.000140002 -0.0007757)
(0.101579 0.000128539 -0.000494576)
(0.0993497 4.14761e-05 0.000199182)
(0.0982465 0.000241385 0.000970565)
(0.0976902 0.000194527 0.00173892)
(0.0971714 0.000167985 0.00189454)
(0.0974708 0.00030702 0.00297952)
(0.0993944 0.000341111 0.00286176)
(0.100268 0.000676697 0.00204855)
(0.101506 0.000572327 0.00258818)
(0.103465 0.000184257 0.00332063)
(0.106497 -3.05508e-05 0.00266971)
(0.108077 1.89818e-05 0.000107822)
(0.106629 0.000437229 -0.000844658)
(0.104805 0.000635811 -1.82892e-05)
(0.103581 0.000593666 -0.000980524)
(0.101862 0.000690925 -0.00305861)
(0.101532 0.000411335 -0.00351066)
(0.101238 4.70449e-05 -0.00397589)
(0.10247 0.000195405 -0.00409447)
(0.104285 0.000108669 -0.00322358)
(0.107039 -0.000201234 -0.00357466)
(0.108059 -0.000259769 -0.00369775)
(0.10967 -4.38797e-05 -0.00195166)
(0.111167 0.000175378 -0.000155849)
(0.112376 7.05554e-05 0.000904915)
(0.112555 -0.000147853 0.00236796)
(0.120212 -3.86309e-05 0.00259749)
(0.118103 -0.000381231 0.00696781)
(0.118342 -0.000793234 0.00775709)
(0.119768 -0.00126353 0.00476348)
(0.12287 -0.00185097 0.000769369)
(0.125113 -0.00186482 -0.00239915)
(0.1261 -0.00107485 -0.00286129)
(0.124402 -0.000406743 -0.000413766)
(0.122552 -0.000364187 0.002419)
(0.120397 -0.000286278 0.00122766)
(0.122244 -0.000103823 -0.00109725)
(0.124423 -0.000147112 -0.00107643)
(0.126502 -0.000237087 -0.0015558)
(0.128768 -0.000361038 -0.00245957)
(0.128934 -0.000589247 -0.00281818)
(0.129058 -0.000701836 -0.00253155)
(0.127439 -0.000313644 -0.00120933)
(0.12593 -0.000229844 0.000354917)
(0.123718 -0.000352579 0.000203262)
(0.122101 -0.000277575 -0.0017298)
(0.12184 2.38218e-06 -0.0021492)
(0.120404 0.000459438 -0.000779901)
(0.120668 0.000468612 -0.000432287)
(0.11926 0.000386638 -0.0017799)
(0.118261 0.000210714 -0.00192607)
(0.116011 8.94576e-05 -0.000321729)
(0.113376 0.000315211 0.000425575)
(0.111954 0.000135349 0.00116061)
(0.109929 -0.000161213 0.001444)
(0.108088 -0.00013572 0.00201051)
(0.108388 2.46746e-05 0.00197954)
(0.109299 0.000757199 0.00160934)
(0.110078 0.00108472 0.00300493)
(0.110853 0.000737234 0.0046467)
(0.113253 1.4486e-05 0.0053076)
(0.116374 -0.000217725 0.00332758)
(0.116298 0.000532178 0.000741177)
(0.11456 0.000963868 0.00105199)
(0.113207 0.000940818 0.00101693)
(0.111234 0.0010348 -0.00123399)
(0.110719 0.000828469 -0.00178548)
(0.109871 0.000596704 -0.00205553)
(0.109615 0.000811725 -0.00366893)
(0.110479 0.000627934 -0.00410349)
(0.112963 0.000155415 -0.00411496)
(0.113831 0.00015624 -0.00459122)
(0.114716 0.000347537 -0.00421227)
(0.116673 0.000446629 -0.0023493)
(0.118811 0.000288703 -0.00105669)
(0.120466 6.75923e-05 0.000246832)
(0.12598 0.000215419 0.000661641)
(0.124501 0.000250068 0.00525822)
(0.123426 -0.000203159 0.0081152)
(0.123676 -0.00109974 0.00643972)
(0.126444 -0.0021301 0.00236027)
(0.128911 -0.00215225 -0.00182697)
(0.130721 -0.000983559 -0.00422458)
(0.129812 -3.32339e-05 -0.00330875)
(0.128167 1.44639e-05 0.000631969)
(0.124865 4.56413e-05 0.00173268)
(0.125403 0.00014098 -0.000332444)
(0.128247 0.000140948 -0.000471582)
(0.13001 5.35314e-05 -0.00043204)
(0.131989 -0.000189936 -0.00141001)
(0.132645 -0.000522135 -0.00236782)
(0.132753 -0.000652297 -0.00278041)
(0.131589 -0.000235131 -0.00198785)
(0.129975 -7.79499e-05 -0.000152312)
(0.127062 -0.000166099 0.000745153)
(0.124527 -0.000265508 -0.00125806)
(0.124474 -7.58151e-05 -0.00367321)
(0.123697 0.000456454 -0.00330882)
(0.124943 0.000535845 -0.00146526)
(0.125744 0.000547799 -0.00223356)
(0.127402 0.000227489 -0.00412035)
(0.128452 -5.37378e-06 -0.00227551)
(0.126803 0.00037618 -0.00024389)
(0.125452 0.000294259 0.000405348)
(0.123361 -9.56895e-05 0.00112113)
(0.120084 -0.000265595 0.00180497)
(0.117767 -0.000224038 0.000910712)
(0.1173 0.000514766 -0.000372444)
(0.117556 0.00119853 0.00152803)
(0.117509 0.00136076 0.00426522)
(0.118561 0.000484378 0.00572082)
(0.121878 -0.000418919 0.00536824)
(0.123292 0.000376268 0.00281559)
(0.122299 0.00116493 0.00204323)
(0.121041 0.00136094 0.00247864)
(0.118669 0.00147105 8.52306e-05)
(0.117766 0.00101026 -0.000754064)
(0.117395 0.000817706 0.000640899)
(0.116847 0.00140404 -0.000923374)
(0.116966 0.00135898 -0.00363006)
(0.118963 0.000627004 -0.00461334)
(0.119699 0.000658543 -0.00468827)
(0.119151 0.00108422 -0.00529999)
(0.120382 0.00110393 -0.00422373)
(0.122465 0.000751252 -0.00274593)
(0.124757 0.00021092 -0.00122548)
(0.129406 0.000295535 -0.000435036)
(0.128799 0.000808688 0.00355244)
(0.127434 0.000850676 0.00714305)
(0.126549 -0.000255962 0.0070319)
(0.12876 -0.00200759 0.00357265)
(0.131086 -0.00239253 -0.00064892)
(0.133225 -0.00109074 -0.00420158)
(0.133723 7.60474e-05 -0.00582061)
(0.13354 0.000217699 -0.00267922)
(0.130091 0.000347918 0.000366483)
(0.12864 0.000382909 -0.000446244)
(0.131488 0.000360149 -0.000300698)
(0.133776 0.000305412 0.000469165)
(0.135182 1.65212e-05 -0.0002488)
(0.135581 -0.000368389 -0.00155024)
(0.135227 -0.000448015 -0.00242546)
(0.134152 -1.30932e-05 -0.00219219)
(0.133007 0.000189088 -0.000566202)
(0.129823 0.000207516 0.000839536)
(0.12614 -5.83758e-05 -0.000462828)
(0.125439 -3.81965e-05 -0.00354507)
(0.124563 0.000561317 -0.00508032)
(0.125168 0.000591116 -0.0032017)
(0.126226 0.000583294 -0.00205091)
(0.128323 8.25462e-05 -0.00493412)
(0.13199 -0.000445173 -0.00481013)
(0.133424 4.92977e-05 -0.0016097)
(0.133652 0.000192618 -0.000529199)
(0.132984 -0.000109687 0.000318224)
(0.130486 -0.000276343 0.00229773)
(0.127093 -5.28982e-05 0.00164135)
(0.125244 0.000691027 -0.00168414)
(0.124277 0.00126275 -0.00120515)
(0.122848 0.00176999 0.00226732)
(0.122011 0.00109003 0.00372591)
(0.124795 -0.000416518 0.004004)
(0.127539 2.46168e-05 0.00288575)
(0.127882 0.000911569 0.00199852)
(0.127427 0.00141939 0.00317846)
(0.125219 0.00197374 0.00121157)
(0.12336 0.0013392 -0.000966663)
(0.122905 0.000787909 0.00175086)
(0.122509 0.00157758 0.00263918)
(0.122579 0.00190523 -0.00097051)
(0.124629 0.00110991 -0.00402439)
(0.125975 0.00103692 -0.00412695)
(0.124367 0.00179695 -0.00532193)
(0.123979 0.00192133 -0.00583733)
(0.125343 0.00145508 -0.00493697)
(0.127563 0.000507295 -0.00276318)
(0.131829 0.00021163 -0.00180988)
(0.131338 0.00103506 0.00228487)
(0.129915 0.00181801 0.00589868)
(0.128381 0.000972966 0.00701398)
(0.130319 -0.00126709 0.00451555)
(0.132789 -0.00208402 0.000588497)
(0.134462 -0.00103966 -0.00305557)
(0.135238 -0.000256994 -0.00661741)
(0.136674 -0.000185344 -0.00573405)
(0.134658 0.000325805 -0.00226595)
(0.131916 0.000556422 -0.00179755)
(0.133837 0.000477531 -0.00115415)
(0.137042 0.00041984 0.000561898)
(0.138757 0.000223068 0.000666672)
(0.138686 -9.20575e-05 -0.000648493)
(0.137212 -2.75063e-05 -0.00191141)
(0.135549 0.000400132 -0.00218989)
(0.135311 0.000468079 -0.00075377)
(0.132848 0.000593913 0.000858334)
(0.128559 0.000226888 7.41826e-05)
(0.127012 -7.57554e-05 -0.00251291)
(0.126281 0.000590795 -0.00496336)
(0.126154 0.000687181 -0.00434782)
(0.126617 0.000743982 -0.00181248)
(0.127618 6.24007e-05 -0.00374005)
(0.130756 -0.000993588 -0.00548466)
(0.133826 -0.000596651 -0.00258343)
(0.135739 -0.000172846 -0.00106726)
(0.136495 -0.000313283 -0.000824032)
(0.135576 -0.000612979 0.00201813)
(0.132973 -0.000192166 0.00344342)
(0.131833 0.00099703 -0.000420496)
(0.130976 0.001646 -0.00289007)
(0.128681 0.00233788 -0.000246842)
(0.125401 0.00181464 0.00105648)
(0.126093 -0.000168333 0.000650134)
(0.129259 -0.000150086 0.000367755)
(0.130969 0.000519621 -0.000243143)
(0.131671 0.000917092 0.00180281)
(0.130478 0.00203197 0.00177947)
(0.128078 0.00161773 -0.0013195)
(0.127207 0.000767882 0.000982604)
(0.12677 0.00148844 0.00479085)
(0.126597 0.00197533 0.00262546)
(0.128577 0.00123036 -0.0019665)
(0.130991 0.00116528 -0.00265901)
(0.129772 0.00238606 -0.00383176)
(0.128247 0.00278897 -0.00603104)
(0.128512 0.00222911 -0.00707773)
(0.130158 0.000809027 -0.00524342)
(0.134042 3.43211e-05 -0.00342534)
(0.132801 0.00103179 0.00120795)
(0.131153 0.00250275 0.00472355)
(0.12896 0.00199429 0.00659314)
(0.130285 -0.000677021 0.00526676)
(0.133491 -0.00163805 0.0016554)
(0.135542 -0.000447334 -0.00190308)
(0.135387 -0.000396987 -0.00594033)
(0.136438 -0.0011067 -0.00684754)
(0.135987 -0.000389197 -0.00423395)
(0.133436 0.000327856 -0.00321842)
(0.134382 0.000354742 -0.00233496)
(0.138236 0.000230551 -7.6908e-05)
(0.141321 0.000225175 0.00104501)
(0.141713 0.000262122 0.000262789)
(0.139053 0.000672551 -0.00122352)
(0.136193 0.00106182 -0.00211755)
(0.136724 0.000712493 -0.000926019)
(0.135743 0.000821922 0.000857469)
(0.131788 0.000474303 0.000269259)
(0.129225 -0.000268099 -0.00173145)
(0.128649 0.000282359 -0.0037487)
(0.12861 0.000530669 -0.00415084)
(0.128888 0.000900813 -0.00171754)
(0.128956 0.000407524 -0.0019034)
(0.129584 -0.0011487 -0.00393474)
(0.131591 -0.00118062 -0.0020957)
(0.134103 -0.000670226 -0.00048155)
(0.135797 -0.000514294 -0.000839228)
(0.135943 -0.000971382 0.00135014)
(0.133983 -0.000801562 0.00413908)
(0.13467 0.000709119 0.00197475)
(0.135884 0.00172021 -0.00217737)
(0.134694 0.00283583 -0.00169095)
(0.130406 0.00264083 -0.000542961)
(0.128334 0.000304907 -0.00145667)
(0.130404 -0.000156835 -0.00189095)
(0.132767 0.000331737 -0.00272065)
(0.133667 0.000273334 -0.00105539)
(0.133283 0.00154541 0.000764475)
(0.130519 0.00142986 -0.00166906)
(0.129187 0.000506855 -0.000526731)
(0.129138 0.00118058 0.00484992)
(0.129303 0.00164496 0.00536661)
(0.131182 0.000784281 0.000762781)
(0.133934 0.000719383 -0.000731979)
(0.133701 0.00248776 -0.0015667)
(0.132422 0.00349246 -0.00448914)
(0.132418 0.00309579 -0.00761177)
(0.13349 0.0011754 -0.00728448)
(0.136521 8.88473e-05 -0.00404261)
(0.133307 0.00114735 0.000882909)
(0.131296 0.00311475 0.00394831)
(0.129048 0.00282734 0.00557186)
(0.129492 -0.000550396 0.00492484)
(0.132876 -0.00182796 0.00175382)
(0.136136 0.000144007 -0.00176407)
(0.135262 0.000138981 -0.0053394)
(0.134371 -0.00160378 -0.00652953)
(0.133814 -0.0014206 -0.00456057)
(0.131739 -0.000523986 -0.00341271)
(0.132267 -0.000221864 -0.00248145)
(0.136171 -0.000460159 -0.00031561)
(0.140846 -0.000299459 0.00120754)
(0.143057 0.000434416 0.00110516)
(0.140418 0.00156087 -0.000278541)
(0.136827 0.00191273 -0.00173589)
(0.137553 0.000870265 -0.000995862)
(0.137671 0.000777504 0.000763167)
(0.134769 0.00059363 0.000266197)
(0.131689 -0.000440082 -0.00144734)
(0.131002 -0.000265876 -0.00251779)
(0.131505 -4.05286e-05 -0.00310802)
(0.132457 0.000774214 -0.00161584)
(0.132225 0.00102999 -0.000571126)
(0.129657 -0.000532145 -0.00172581)
(0.128457 -0.00115579 -0.000740534)
(0.129929 -0.00108983 0.000698456)
(0.132356 -0.000747794 0.000470914)
(0.13394 -0.00122954 0.00172153)
(0.132604 -0.00176253 0.00373147)
(0.134925 -0.000551604 0.0029282)
(0.138143 0.00088295 -0.000834536)
(0.138309 0.0027398 -0.00212185)
(0.134316 0.00319706 -0.00139817)
(0.130814 0.000777215 -0.00204121)
(0.131967 -0.000290235 -0.00249745)
(0.134876 0.000179567 -0.00326434)
(0.134507 -8.30567e-05 -0.00263911)
(0.13287 0.00104368 -0.000741537)
(0.128985 0.0010182 -0.00221804)
(0.126946 4.64877e-05 -0.00183993)
(0.12727 0.000632954 0.00337726)
(0.128228 0.000714633 0.00563937)
(0.131248 -0.000433379 0.00223564)
(0.134449 -0.000481208 0.000594171)
(0.135173 0.00184785 0.000256331)
(0.135043 0.00358884 -0.002434)
(0.13627 0.00376343 -0.00666353)
(0.13785 0.00174853 -0.00769873)
(0.13886 0.000798195 -0.00324726)
(0.133259 0.00191068 0.00110222)
(0.130798 0.00390767 0.00310224)
(0.129268 0.0035354 0.00378022)
(0.129364 -0.000719271 0.00302945)
(0.132091 -0.00264891 8.4338e-05)
(0.135772 0.000214712 -0.0030265)
(0.134506 0.000855281 -0.00550483)
(0.132794 -0.0014089 -0.00609987)
(0.131341 -0.0020165 -0.00416446)
(0.128648 -0.00154789 -0.00274685)
(0.128715 -0.00120838 -0.00154722)
(0.13181 -0.00169446 0.000501583)
(0.137112 -0.00148765 0.00176751)
(0.141402 0.000149526 0.00184447)
(0.140442 0.0022511 0.000675977)
(0.137732 0.00262879 -0.000913497)
(0.138457 0.000966569 -0.00061663)
(0.138605 0.000646049 0.000697397)
(0.136439 0.000655521 0.00026101)
(0.133662 -0.000420198 -0.00109944)
(0.132888 -0.000810436 -0.00147261)
(0.134205 -0.00100377 -0.00207518)
(0.13664 0.000318957 -0.00142285)
(0.136129 0.00194854 0.00045079)
(0.130325 0.000939498 0.000183945)
(0.125144 -0.000295911 0.000320382)
(0.12437 -0.00126131 0.00133651)
(0.127573 -0.00120328 0.00165828)
(0.132077 -0.00144488 0.0025846)
(0.132859 -0.00280842 0.00311249)
(0.136204 -0.00261957 0.00213507)
(0.139514 -0.00087093 -0.000941851)
(0.139157 0.00204315 -0.00303427)
(0.134923 0.00329559 -0.0025982)
(0.131591 0.000810578 -0.00251401)
(0.132923 -0.000948868 -0.00246559)
(0.136056 -0.000202532 -0.00260265)
(0.134233 4.86586e-05 -0.00261438)
(0.130182 0.00108614 -0.00181133)
(0.125235 0.000816926 -0.0028272)
(0.123207 -0.000252815 -0.00260701)
(0.123506 0.000386943 0.00143349)
(0.12398 -0.000346496 0.00353076)
(0.127755 -0.00239944 0.00130932)
(0.131728 -0.00253071 0.000343925)
(0.133771 0.000405717 0.00061027)
(0.135533 0.00281019 -0.00159942)
(0.138989 0.00371337 -0.00574688)
(0.142033 0.00232522 -0.00674951)
(0.14031 0.00198636 -0.00170942)
(0.133863 0.00324521 0.00111215)
(0.131582 0.0047534 0.00187189)
(0.13094 0.00399421 0.00198966)
(0.130948 -0.000903862 0.001187)
(0.131872 -0.00339561 -0.00203087)
(0.134345 0.000165915 -0.00495044)
(0.13319 0.00120804 -0.00623776)
(0.133047 -0.00135491 -0.00605855)
(0.131613 -0.00217985 -0.00409275)
(0.127447 -0.00232385 -0.00224105)
(0.126446 -0.00234891 -0.000329061)
(0.128178 -0.0031841 0.00195178)
(0.132996 -0.00312017 0.00270162)
(0.138227 -0.00066757 0.00228332)
(0.139264 0.00233509 0.00127846)
(0.138183 0.00272134 0.00031221)
(0.138933 0.00087535 0.00048645)
(0.139158 0.00070079 0.000778704)
(0.13749 0.00096246 6.11176e-05)
(0.135572 -5.60649e-06 -0.00079695)
(0.134648 -0.00105024 -0.000640318)
(0.136191 -0.00218948 -0.000935508)
(0.139882 -0.000281543 -0.00058084)
(0.138935 0.00341461 0.00151581)
(0.131397 0.00328935 0.00145689)
(0.124138 0.00111674 0.000668135)
(0.121569 -0.0017009 0.00133397)
(0.124498 -0.00272364 0.00206343)
(0.13122 -0.00247249 0.0032304)
(0.134271 -0.00378606 0.00349093)
(0.137558 -0.00430554 0.00210083)
(0.139116 -0.00230026 -0.000929058)
(0.137395 0.00150792 -0.00354768)
(0.132866 0.00310983 -0.00334256)
(0.130532 0.000175184 -0.00267293)
(0.132037 -0.00219371 -0.00210082)
(0.134151 -0.00084742 -0.00180625)
(0.132402 0.000350316 -0.00240279)
(0.128213 0.00141482 -0.00293453)
(0.12398 0.000746735 -0.00338444)
(0.122645 -0.000294751 -0.00255381)
(0.122352 0.000760461 0.000309176)
(0.121141 -0.00109334 0.00177)
(0.123796 -0.00479999 0.000333245)
(0.127596 -0.00536791 -0.000312638)
(0.130815 -0.0019543 -0.000315482)
(0.134813 0.000949858 -0.00234896)
(0.140169 0.00258641 -0.00529445)
(0.144357 0.00250263 -0.00493046)
(0.140575 0.00318765 -0.000505828)
(0.136156 0.00472265 0.00127701)
(0.135378 0.00535269 0.00181473)
(0.135273 0.00397856 0.00209055)
(0.134409 -0.00101473 0.00148115)
(0.132069 -0.00352825 -0.00237085)
(0.132645 0.000226342 -0.00602397)
(0.132984 0.000790361 -0.006892)
(0.135717 -0.00198723 -0.00625092)
(0.135774 -0.00218569 -0.00451558)
(0.13049 -0.00272382 -0.00209464)
(0.127998 -0.0036043 0.000731815)
(0.12821 -0.00492387 0.00284739)
(0.13191 -0.00486809 0.00265842)
(0.136176 -0.00165934 0.00154466)
(0.137475 0.00202147 0.00115584)
(0.136959 0.00235019 0.00171387)
(0.137676 0.000548589 0.00205251)
(0.139507 0.000714079 0.000717202)
(0.138832 0.00127525 -0.000847239)
(0.13812 0.000632568 -0.00108575)
(0.137007 -0.00093137 -8.94864e-05)
(0.137145 -0.00326488 0.00081557)
(0.14045 -0.000829274 0.00122178)
(0.139569 0.00497631 0.0024115)
(0.133322 0.00561504 0.00193388)
(0.127542 0.0024981 0.000687303)
(0.12463 -0.00181186 0.0012969)
(0.125206 -0.0039447 0.0022351)
(0.13065 -0.00334769 0.00370164)
(0.133241 -0.00390917 0.00448023)
(0.135128 -0.00438984 0.00333059)
(0.135133 -0.00243823 0.000571466)
(0.133914 0.00148957 -0.00247702)
(0.130592 0.00272608 -0.00309699)
(0.129147 -0.000865715 -0.00265972)
(0.129919 -0.00357845 -0.00195842)
(0.12993 -0.00191383 -0.0016543)
(0.129534 -1.01598e-05 -0.00285008)
(0.128067 0.0014019 -0.00422921)
(0.126176 0.000788317 -0.00365362)
(0.125385 0.00011407 -0.00135479)
(0.124755 0.00171033 0.00158735)
(0.123036 -0.00119964 0.00359997)
(0.124182 -0.006713 0.00231298)
(0.126481 -0.00819038 0.000221144)
(0.129428 -0.00483931 -0.00136446)
(0.134133 -0.00179435 -0.00340828)
(0.139234 0.000559388 -0.0048133)
(0.143676 0.00213471 -0.00320752)
(0.13991 0.00328856 -0.000307178)
(0.138214 0.00538297 0.00163814)
(0.138734 0.00591961 0.00276752)
(0.138348 0.00480397 0.00341189)
(0.136495 0.000414552 0.00340122)
(0.132557 -0.00262208 -0.000488713)
(0.133899 -0.000404605 -0.00573631)
(0.136553 -0.000898103 -0.00746625)
(0.14048 -0.00342521 -0.00674701)
(0.142489 -0.00231973 -0.00537419)
(0.137096 -0.00260314 -0.00207644)
(0.133449 -0.00418803 0.0014877)
(0.132355 -0.00589105 0.00242194)
(0.134066 -0.00585619 0.00107594)
(0.135229 -0.00214672 -0.000199067)
(0.134947 0.00188198 0.000510019)
(0.134417 0.00201019 0.00256624)
(0.135311 0.00018702 0.00281717)
(0.139613 0.000754992 -0.000201228)
(0.139936 0.00170215 -0.00228673)
(0.140341 0.00134081 -0.00171442)
(0.139448 -0.000483619 -0.000153228)
(0.137506 -0.00361266 0.00201561)
(0.139002 -0.000850464 0.00294414)
(0.138908 0.00614276 0.00332234)
(0.135528 0.00668433 0.00242418)
(0.132679 0.0030694 0.000562524)