/*--------------------------------*- C++ -*----------------------------------*\
| =========                 |                                                 |
| \\      /  F ield         | OpenFOAM: The Open Source CFD Toolbox           |
|  \\    /   O peration     | Version:  2.3.0                                 |
|   \\  /    A nd           | Web:      www.OpenFOAM.org                      |
|    \\/     M anipulation  |                                                 |
\*---------------------------------------------------------------------------*/
FoamFile
{
    version     2.0;
    format      ascii;
    class       volVectorField;
    location    "100";
    object      U_0;
}
// * * * * * * * * * * * * * * * * * * * * * * * * * * * * * * * * * * * * * //

dimensions      [0 1 -1 0 0 0 0];

internalField   nonuniform List<vector> 
90000
(
(0.0113583 -1.3764e-06 -2.42187e-05)
(0.011329 7.10721e-06 -0.000138741)
(0.0111873 6.28895e-06 -0.000116482)
(0.0108657 8.73074e-06 -0.000116448)
(0.0106808 3.75879e-06 -0.000409827)
(0.0105325 -1.65226e-05 -0.000521479)
(0.0104502 -1.52084e-05 -0.000464098)
(0.0101951 -1.01346e-05 -0.000456338)
(0.00999402 -2.0845e-05 -0.000294139)
(0.00969812 -1.96157e-05 -6.87587e-05)
(0.00945993 -1.29488e-05 5.41025e-05)
(0.00902675 -1.33311e-05 5.61299e-05)
(0.00868464 -1.0903e-05 0.000121921)
(0.00828823 -2.18302e-06 7.38493e-05)
(0.00804667 1.66767e-06 -0.000134509)
(0.00792207 -1.55077e-05 -0.000135269)
(0.00793068 -8.58477e-06 -2.92331e-05)
(0.00779829 -5.79673e-06 5.98278e-05)
(0.00782458 -1.50984e-05 0.000125674)
(0.00782319 -9.47995e-06 0.000141072)
(0.00784611 -8.08522e-06 0.000143404)
(0.00789256 2.1312e-06 0.000125927)
(0.00800083 1.60794e-06 6.40289e-05)
(0.00809893 5.14904e-06 3.18397e-05)
(0.00830191 1.05566e-05 0.000132802)
(0.00855757 2.80227e-06 0.000257996)
(0.00878249 1.39422e-05 0.000288984)
(0.00893816 1.12522e-05 0.000228184)
(0.00905659 3.38276e-06 0.000131734)
(0.00909899 4.66419e-06 -3.7179e-05)
(0.00919293 -5.33357e-06 -0.000320976)
(0.00918554 6.08892e-06 -0.000544139)
(0.00907526 1.7042e-05 -0.000696135)
(0.00899782 1.5912e-05 -0.000782982)
(0.0092049 7.8238e-06 -0.00068982)
(0.00944165 -1.02102e-05 -0.000425752)
(0.00977896 -1.08819e-05 -0.000149577)
(0.00980692 -2.82785e-06 0.000106796)
(0.00985125 -9.78738e-06 0.000210533)
(0.00975201 -2.12647e-06 0.000315856)
(0.00974637 -7.96864e-06 0.000484749)
(0.00984795 -2.01796e-05 0.000620128)
(0.010022 -1.72667e-07 0.000713401)
(0.0100703 9.32146e-06 0.000595136)
(0.0103822 -6.93729e-06 0.000419982)
(0.0107836 -9.78657e-06 0.000264469)
(0.011052 -1.48418e-06 0.000150721)
(0.0111774 4.22602e-06 4.39505e-06)
(0.0112026 9.62339e-06 -0.000175842)
(0.011223 7.11097e-07 -0.000131211)
(0.0342863 -5.03432e-05 7.41586e-05)
(0.0345251 -1.98917e-05 -0.000266366)
(0.0344738 -2.67666e-05 -0.000218358)
(0.0337167 -2.81237e-05 -0.000118076)
(0.0334801 -6.10449e-05 -0.000770694)
(0.0330756 -0.00012533 -0.00113244)
(0.0326106 -0.000103576 -0.00113239)
(0.0319903 -7.54642e-05 -0.00120239)
(0.0315357 -0.000105255 -0.000844306)
(0.030458 -8.82006e-05 -0.000291128)
(0.0296003 -6.79766e-05 6.78648e-06)
(0.0282288 -7.56036e-05 9.27358e-05)
(0.0270489 -6.30564e-05 0.000267432)
(0.0257651 -3.19231e-05 0.000141868)
(0.025131 -2.9842e-05 -0.000271692)
(0.0245539 -8.44931e-05 -0.000208588)
(0.0242597 -4.96587e-05 4.97684e-05)
(0.0238564 -3.95728e-05 0.000231929)
(0.0237909 -6.11323e-05 0.000327979)
(0.0236566 -3.25787e-05 0.000312813)
(0.0236033 -1.80722e-05 0.000275977)
(0.0237125 2.68679e-05 0.000262641)
(0.0240644 2.99028e-05 0.000175607)
(0.0243147 4.69687e-05 0.000222456)
(0.0249202 6.34389e-05 0.000544269)
(0.0255206 3.93293e-05 0.000743395)
(0.0260874 7.10508e-05 0.000701764)
(0.0267211 5.15067e-05 0.000529358)
(0.0271926 2.13909e-05 0.000217504)
(0.0274526 1.49762e-05 -0.000256955)
(0.0277718 -1.80923e-05 -0.000823556)
(0.0277276 2.62717e-05 -0.00124265)
(0.0275975 5.56202e-05 -0.0016342)
(0.0274474 3.18743e-05 -0.00194173)
(0.0280768 -7.79399e-06 -0.0018417)
(0.0284864 -5.86012e-05 -0.00127065)
(0.0292232 -4.58643e-05 -0.000697391)
(0.0294193 -1.31409e-05 -8.93623e-05)
(0.0296172 -3.19344e-05 0.000300292)
(0.0294842 -1.59998e-05 0.000660532)
(0.029664 -4.72188e-05 0.00114834)
(0.0296928 -8.20365e-05 0.00152628)
(0.0300694 -2.04898e-05 0.00177141)
(0.0304583 -1.77317e-05 0.0016074)
(0.0312195 -8.21585e-05 0.00136215)
(0.032054 -8.12215e-05 0.00102653)
(0.0326857 -4.03264e-05 0.000755607)
(0.0331385 -1.70513e-05 0.000438176)
(0.0335438 -6.23232e-06 -7.42604e-05)
(0.0337811 -3.99662e-05 -0.000100808)
(0.0566692 -0.000201098 0.000543923)
(0.0577594 -0.000160252 -3.04408e-05)
(0.0586556 -0.000154812 -0.000268533)
(0.0579039 -0.000150122 0.000241756)
(0.0577654 -0.00021269 -0.000258955)
(0.0572989 -0.000308195 -0.000952092)
(0.0564645 -0.000254582 -0.0012172)
(0.0555772 -0.000187542 -0.00171655)
(0.0552797 -0.00021978 -0.00165653)
(0.0538415 -0.000172118 -0.000902818)
(0.0527534 -0.000148963 -0.00036359)
(0.050764 -0.000163087 -0.000120388)
(0.048606 -0.000127362 0.000290187)
(0.0460052 -7.41382e-05 0.000335571)
(0.0446361 -8.92826e-05 -0.000251719)
(0.0431568 -0.000187407 -0.000345657)
(0.042007 -0.000114565 6.0643e-06)
(0.041017 -0.000100048 0.000334327)
(0.0404522 -0.000124908 0.000500175)
(0.0400309 -6.35581e-05 0.000472506)
(0.0396173 -3.01301e-05 0.000336209)
(0.0395174 6.70908e-05 0.000313104)
(0.0399447 8.66741e-05 0.000199167)
(0.0401964 0.000128319 0.000207017)
(0.041058 0.00016053 0.000767315)
(0.0418627 0.000129637 0.00121241)
(0.0426706 0.000178788 0.00118245)
(0.0437486 0.000119999 0.0010296)
(0.0448137 5.42252e-05 0.000682122)
(0.0456208 2.39375e-05 -3.66439e-05)
(0.0464068 -3.6482e-05 -0.000816648)
(0.0465565 4.96811e-05 -0.00129322)
(0.0466737 0.000105251 -0.001847)
(0.0461114 6.1878e-05 -0.00251299)
(0.0467333 -1.45489e-05 -0.00285921)
(0.046964 -0.000109049 -0.00237538)
(0.047896 -9.62119e-05 -0.00181459)
(0.0485074 -4.30672e-05 -0.00117894)
(0.0490234 -5.99643e-05 -0.000533431)
(0.049143 -3.30754e-05 6.03428e-05)
(0.0497385 -0.000101211 0.000832706)
(0.0495342 -0.000154113 0.00158905)
(0.0497979 -6.62852e-05 0.0022418)
(0.050447 -8.85678e-05 0.0023028)
(0.0513108 -0.000211171 0.00231253)
(0.0522567 -0.000220479 0.00208846)
(0.053213 -0.000149599 0.00175335)
(0.0539451 -0.000112834 0.00156316)
(0.0550314 -8.75898e-05 0.000833848)
(0.0556523 -0.00014547 0.000365627)
(0.0758557 -0.00042898 0.00167201)
(0.0776466 -0.000434047 0.00092145)
(0.0800704 -0.000417568 -0.000236605)
(0.0804118 -0.000398469 0.000246661)
(0.0807961 -0.00047824 0.000525598)
(0.0806171 -0.000578364 5.72513e-05)
(0.0797392 -0.000479418 -0.000229161)
(0.0784347 -0.000368894 -0.00117647)
(0.0784827 -0.000376478 -0.00216065)
(0.0775056 -0.000270964 -0.00179569)
(0.0770467 -0.000241648 -0.00112768)
(0.0755955 -0.000254546 -0.000829668)
(0.0734513 -0.000176859 -0.000137917)
(0.0696964 -9.65643e-05 0.000463822)
(0.0673758 -0.000126089 5.49134e-06)
(0.0648427 -0.000273263 -0.00042099)
(0.0621773 -0.000183922 -0.000240389)
(0.0600423 -0.00018621 0.000221059)
(0.0582665 -0.000218933 0.000590536)
(0.0571377 -0.000119803 0.000697785)
(0.0559675 -7.84075e-05 0.000446298)
(0.0552006 6.69824e-05 0.00030387)
(0.0553094 0.000115728 0.000178521)
(0.0552678 0.000196806 -3.82287e-05)
(0.056162 0.000261305 0.000554192)
(0.0570178 0.000253635 0.00146519)
(0.0579312 0.000351655 0.00168756)
(0.0590416 0.000259739 0.00165626)
(0.0605173 0.000131971 0.0015948)
(0.0620295 4.25149e-05 0.000826157)
(0.0636208 -6.10623e-05 -0.000333146)
(0.0642478 5.74774e-05 -0.000800832)
(0.065255 0.000154103 -0.00124441)
(0.0645427 0.000127634 -0.00207498)
(0.0646755 2.80426e-05 -0.00306985)
(0.0642343 -0.000106165 -0.00306381)
(0.0645904 -0.000114746 -0.00274933)
(0.0653139 -7.88136e-05 -0.00266165)
(0.0661125 -0.000102906 -0.00225273)
(0.0666121 -6.53655e-05 -0.00160731)
(0.0681021 -0.00015383 -0.000746622)
(0.0683493 -0.000188501 0.000275668)
(0.0684668 -7.15866e-05 0.00148832)
(0.0691896 -0.000125185 0.00188559)
(0.0700145 -0.000312701 0.00233443)
(0.0705208 -0.000357018 0.0028327)
(0.0715347 -0.000269964 0.00264512)
(0.0720252 -0.000266334 0.00276882)
(0.0734722 -0.00025069 0.00252592)
(0.0745091 -0.000299798 0.00170673)
(0.0904059 -0.000642463 0.00352081)
(0.0922013 -0.000731352 0.00290656)
(0.0954031 -0.000760138 0.00062259)
(0.0972407 -0.000778272 -0.000170976)
(0.0988369 -0.000886317 0.000291485)
(0.0992483 -0.000957018 0.000605536)
(0.0989017 -0.000768775 0.00103735)
(0.097242 -0.00059995 0.0006325)
(0.0971256 -0.000589987 -0.00129054)
(0.096835 -0.000400318 -0.00220131)
(0.097542 -0.000346932 -0.00181484)
(0.0974488 -0.000395127 -0.00182336)
(0.0971508 -0.000271452 -0.0013378)
(0.0940629 -0.00014471 -0.000107289)
(0.0915719 -0.000155305 0.000172812)
(0.0889638 -0.000281214 -0.000177534)
(0.0852242 -0.00015951 -0.000376001)
(0.0819873 -0.000220033 -0.000169043)
(0.0784512 -0.000305558 0.000326449)
(0.0759799 -0.000181847 0.000832787)
(0.0736001 -0.000143176 0.000710554)
(0.0715847 8.2099e-06 0.000316058)
(0.0708109 6.79289e-05 0.000190329)
(0.0698586 0.000184971 -0.000171419)
(0.070283 0.000266925 5.40429e-05)
(0.0708672 0.000287256 0.00118501)
(0.0718519 0.000495769 0.0019133)
(0.0727059 0.000459449 0.00204882)
(0.0739938 0.000325746 0.00242342)
(0.0756347 0.000159135 0.00220935)
(0.0779086 -3.41418e-05 0.000677853)
(0.0789643 6.70601e-05 -2.22953e-06)
(0.0812218 0.000145953 -0.000140106)
(0.0816513 0.000182112 -0.000779191)
(0.0817834 0.000113699 -0.00219382)
(0.0806992 -1.69211e-05 -0.00281797)
(0.0797429 1.20974e-05 -0.00253837)
(0.0795948 1.5574e-05 -0.00304259)
(0.07993 -6.36612e-05 -0.0036377)
(0.0801519 -6.93323e-05 -0.0034893)
(0.0820602 -0.000248758 -0.00281955)
(0.0834692 -0.000267922 -0.00202138)
(0.0844654 -3.47886e-05 -0.000518988)
(0.0855484 -9.32561e-05 0.000123134)
(0.0868316 -0.000312438 0.000513122)
(0.0868196 -0.000373188 0.0020063)
(0.0876491 -0.000254523 0.00270062)
(0.0876239 -0.000290831 0.00300685)
(0.0885066 -0.000398539 0.00366091)
(0.0892615 -0.000468359 0.0034988)
(0.10143 -0.000716816 0.00510769)
(0.102368 -0.00089513 0.00547521)
(0.105372 -0.000983042 0.00279024)
(0.10778 -0.00112098 0.000235254)
(0.110533 -0.0013304 -0.000668406)
(0.111571 -0.00135628 -0.000295825)
(0.111727 -0.00103698 0.00098599)
(0.110081 -0.000760093 0.00205558)
(0.109391 -0.000755042 0.00064819)
(0.10919 -0.000517526 -0.00162939)
(0.111017 -0.000386648 -0.00191494)
(0.11202 -0.000498913 -0.00213986)
(0.113614 -0.000423046 -0.00259741)
(0.112619 -0.000297582 -0.00161557)
(0.11101 -0.000321134 -0.000616337)
(0.109638 -0.00039057 -0.000162104)
(0.106583 -0.000125731 -6.33158e-05)
(0.104094 -0.000147397 -0.000293251)
(0.10016 -0.000269304 -0.000368775)
(0.0967458 -0.000137412 0.000325396)
(0.0933916 -8.63468e-05 0.000874114)
(0.0899358 2.02175e-05 0.000416796)
(0.0879901 3.72333e-06 4.04509e-05)
(0.0855454 0.000111244 -0.000187944)
(0.0847712 0.000173965 -0.000169341)
(0.0841925 0.000156949 0.000625323)
(0.084702 0.000415215 0.0016529)
(0.0851567 0.00046178 0.00204988)
(0.085988 0.000468405 0.0024961)
(0.0872339 0.000394545 0.00325765)
(0.0894884 0.000187686 0.00205813)
(0.0904156 0.000268084 0.00106691)
(0.0928313 0.00017093 0.00127456)
(0.0949584 0.000101939 0.00113456)
(0.0965182 0.000118115 -0.000387293)
(0.0959207 8.3091e-05 -0.00196041)
(0.0940422 0.000255033 -0.00162149)
(0.0927591 0.00031119 -0.00170884)
(0.0920713 0.00022475 -0.00322621)
(0.0912161 0.000207239 -0.00424572)
(0.0921107 -0.000135589 -0.00401567)
(0.0933765 -0.000315462 -0.00383311)
(0.0954113 -3.40901e-05 -0.00273012)
(0.0972393 -8.75697e-05 -0.00187248)
(0.0995601 -0.000317525 -0.0021453)
(0.100027 -0.000325712 -0.000820732)
(0.10113 -0.00010123 0.00113497)
(0.101314 -4.85801e-05 0.00198915)
(0.101644 -0.000273175 0.00301511)
(0.101498 -0.000471927 0.00407214)
(0.111308 -0.000491218 0.00497138)
(0.110497 -0.000818538 0.00731679)
(0.112592 -0.00100802 0.005507)
(0.114766 -0.0012758 0.00199113)
(0.117932 -0.00164868 -0.000830951)
(0.119546 -0.00163165 -0.00182383)
(0.119876 -0.00110734 -0.000543602)
(0.118097 -0.000687792 0.0018208)
(0.116802 -0.000678867 0.00220782)
(0.116008 -0.000500517 -0.000441256)
(0.118337 -0.000306581 -0.00173889)
(0.119981 -0.000414905 -0.00166828)
(0.122415 -0.000440202 -0.00262504)
(0.12344 -0.000420325 -0.00278502)
(0.12269 -0.000523133 -0.00210578)
(0.122315 -0.000594664 -0.00118348)
(0.120003 -0.000248954 -9.77819e-05)
(0.118621 -0.000212373 0.000228883)
(0.116252 -0.000289848 -0.000626065)
(0.114095 -9.35226e-05 -0.000997066)
(0.111938 0.000101378 7.12854e-05)
(0.108658 0.00028424 0.000445626)
(0.106687 0.000151022 -0.00027437)
(0.10333 0.000134006 -0.000780416)
(0.101363 0.000122795 -0.000396901)
(0.0991625 4.79183e-05 0.000304841)
(0.0981628 0.000249213 0.00105892)
(0.0976292 0.000182747 0.00178927)
(0.097167 0.000179301 0.00195505)
(0.0976135 0.000331291 0.00301891)
(0.099572 0.000378633 0.00279756)
(0.100411 0.000701889 0.00204255)
(0.101713 0.000541443 0.00268872)
(0.10382 0.000137452 0.00334676)
(0.106871 -4.92494e-05 0.00248032)
(0.108155 3.90304e-05 -0.000111759)
(0.106496 0.000468643 -0.000838069)
(0.104699 0.000640085 -1.53507e-05)
(0.103473 0.000594774 -0.00117129)
(0.101805 0.000680497 -0.00321115)
(0.101557 0.000370116 -0.00355669)
(0.101339 3.33729e-05 -0.00400756)
(0.102717 0.000194878 -0.00406776)
(0.104643 8.03797e-05 -0.00322797)
(0.107358 -0.00022412 -0.00363012)
(0.108303 -0.000249646 -0.00360134)
(0.10995 -1.81395e-05 -0.00171173)
(0.111417 0.000184345 4.43787e-05)
(0.112524 4.69211e-05 0.00108931)
(0.112536 -0.000192876 0.00266064)
(0.12007 -7.33885e-05 0.00311478)
(0.118007 -0.000423061 0.00734527)
(0.118508 -0.000849238 0.00757209)
(0.120136 -0.00133511 0.00420768)
(0.123283 -0.00188034 0.000209877)
(0.12536 -0.00179882 -0.00265814)
(0.126049 -0.000974 -0.00267897)
(0.12415 -0.000378818 5.09329e-07)
(0.122292 -0.000373924 0.00254033)
(0.120423 -0.000282247 0.000960807)
(0.122574 -9.77124e-05 -0.00124664)
(0.124751 -0.000164055 -0.00109384)
(0.126833 -0.000257163 -0.00166308)
(0.128952 -0.000387018 -0.0025772)
(0.128952 -0.0006134 -0.00282926)
(0.128949 -0.000685704 -0.00238993)
(0.127205 -0.000287163 -0.000969431)
(0.125659 -0.000242131 0.000468842)
(0.123471 -0.000363403 3.71482e-05)
(0.122035 -0.000250404 -0.00191802)
(0.121806 5.9192e-05 -0.00208342)
(0.120427 0.000490274 -0.000653512)
(0.120704 0.000455258 -0.000511521)
(0.119205 0.000365085 -0.00188437)
(0.118131 0.000190286 -0.00178505)
(0.115727 9.66748e-05 -0.000126921)
(0.113143 0.0003191 0.000521698)
(0.111737 9.52999e-05 0.00122342)
(0.109666 -0.000178332 0.00148737)
(0.107984 -0.00010928 0.00201428)
(0.108476 0.000102842 0.00193604)
(0.109432 0.000842979 0.00169317)
(0.110175 0.00109047 0.00324072)
(0.111052 0.000656739 0.00483062)
(0.11366 -6.72406e-05 0.00524225)
(0.116633 -0.000189448 0.0030263)
(0.116224 0.000600644 0.000599995)
(0.114417 0.000982417 0.00108296)
(0.113053 0.000940503 0.000865918)
(0.111137 0.00102889 -0.00140977)
(0.110703 0.000801424 -0.00181807)
(0.109853 0.000599896 -0.00216887)
(0.109705 0.00081111 -0.00381699)
(0.110753 0.000577515 -0.00416344)
(0.113244 0.000126171 -0.00416404)
(0.114 0.000172546 -0.00460829)
(0.114968 0.000363499 -0.00406555)
(0.117012 0.000440204 -0.00212473)
(0.119122 0.00025845 -0.000859487)
(0.120601 3.67864e-05 0.000543816)
(0.125975 0.000221635 0.00118242)
(0.124313 0.000235633 0.00582554)
(0.123377 -0.000294593 0.00819058)
(0.12393 -0.00124255 0.00596788)
(0.12687 -0.00219432 0.00169348)
(0.129267 -0.00205085 -0.00234042)
(0.130807 -0.00082198 -0.00431864)
(0.12963 1.54614e-05 -0.00291426)
(0.127818 -9.57755e-07 0.00102423)
(0.124709 4.20107e-05 0.00163958)
(0.125708 0.000142679 -0.000493287)
(0.12862 0.000125306 -0.000461686)
(0.130303 2.19063e-05 -0.000506878)
(0.13219 -0.00023076 -0.00158435)
(0.132696 -0.000553005 -0.002483)
(0.132667 -0.000632718 -0.00273046)
(0.131361 -0.000198439 -0.00175826)
(0.129608 -8.16506e-05 6.54999e-05)
(0.126647 -0.00019114 0.000646235)
(0.124364 -0.000261012 -0.00161266)
(0.12446 -2.21316e-05 -0.00383565)
(0.123789 0.00049679 -0.00314479)
(0.125166 0.000531936 -0.0013914)
(0.126018 0.0005197 -0.00243961)
(0.127708 0.000187546 -0.00409758)
(0.128479 4.53234e-06 -0.00194248)
(0.126634 0.000400278 -4.2286e-05)
(0.125236 0.000259154 0.000500391)
(0.122976 -0.000134915 0.00121756)
(0.119681 -0.000258931 0.00175632)
(0.117578 -0.00015095 0.000721041)
(0.11731 0.00062893 -0.000325717)
(0.117583 0.00127277 0.00188375)
(0.117568 0.00130812 0.00458751)
(0.118863 0.000333301 0.00582313)
(0.122244 -0.000439189 0.00517953)
(0.123353 0.00047585 0.00259619)
(0.122181 0.00122516 0.00203281)
(0.120835 0.00137674 0.00234104)
(0.118492 0.00144682 -0.000133846)
(0.11774 0.000965895 -0.000683739)
(0.117399 0.000855334 0.000652319)
(0.116879 0.00144243 -0.00123221)
(0.117162 0.00129825 -0.00391445)
(0.119196 0.000578181 -0.00469834)
(0.119744 0.00069835 -0.0047413)
(0.119241 0.001115 -0.00527811)
(0.120664 0.00107763 -0.00404582)
(0.122816 0.000681537 -0.00251801)
(0.125038 0.000165231 -0.000936103)
(0.129501 0.000326575 8.95661e-05)
(0.128631 0.000872386 0.00414054)
(0.127247 0.000780885 0.00739643)
(0.126658 -0.00047431 0.00673667)
(0.129138 -0.00216439 0.00294902)
(0.131467 -0.00230877 -0.00127172)
(0.133463 -0.000891134 -0.00460126)
(0.133764 0.000154487 -0.00567835)
(0.133264 0.000214648 -0.00217458)
(0.129749 0.000348448 0.000522493)
(0.12881 0.000372466 -0.000513209)
(0.13193 0.00034616 -0.000215781)
(0.134081 0.000272167 0.000469894)
(0.13532 -3.10375e-05 -0.000436675)
(0.135573 -0.000396946 -0.00173724)
(0.135111 -0.000420894 -0.00245807)
(0.133968 3.14443e-05 -0.00201477)
(0.132642 0.000198848 -0.000316892)
(0.129275 0.000175253 0.000831832)
(0.125815 -8.62765e-05 -0.000828472)
(0.125347 8.28466e-06 -0.0039113)
(0.124575 0.000607302 -0.00505539)
(0.12533 0.000583259 -0.00297806)
(0.126508 0.000536302 -0.00219295)
(0.128832 6.03814e-06 -0.0051323)
(0.132447 -0.000449921 -0.00451426)
(0.133587 9.88669e-05 -0.00126899)
(0.133647 0.000182517 -0.000385036)
(0.13275 -0.000142407 0.000541486)
(0.13004 -0.000252789 0.00237879)
(0.126718 3.15874e-05 0.00129744)
(0.12506 0.000800564 -0.00190594)
(0.124119 0.00135893 -0.000895742)
(0.122694 0.00176022 0.00263822)
(0.12216 0.000903194 0.00386275)
(0.125225 -0.000515778 0.00395707)
(0.127785 0.000100189 0.00275291)
(0.127895 0.00099973 0.00203448)
(0.127258 0.00149071 0.0031158)
(0.124958 0.00196263 0.000906307)
(0.123233 0.00125437 -0.000894475)
(0.122902 0.000815863 0.00204847)
(0.122553 0.00166318 0.00243197)
(0.122801 0.00187153 -0.00148227)
(0.12492 0.00104655 -0.00426209)
(0.125979 0.00109606 -0.00422316)
(0.124245 0.00186351 -0.00545807)
(0.124083 0.00189245 -0.00581543)
(0.125641 0.00134788 -0.00470442)
(0.127887 0.000412019 -0.00238738)
(0.131915 0.000236668 -0.00117743)
(0.131159 0.0011824 0.00289484)
(0.129654 0.00182162 0.00624412)
(0.128407 0.000732704 0.0068846)
(0.130692 -0.00150596 0.00399218)
(0.133144 -0.00205719 -1.74632e-05)
(0.134686 -0.000885206 -0.00362044)
(0.135447 -0.000193432 -0.00681085)
(0.136634 -0.000156689 -0.00535863)
(0.134292 0.000366148 -0.00195534)
(0.131907 0.000546022 -0.00173447)
(0.134302 0.000457603 -0.000960871)
(0.137465 0.000397393 0.000705482)
(0.138885 0.000191478 0.000539367)
(0.138544 -0.000100102 -0.000877421)
(0.136956 1.1585e-05 -0.00202364)
(0.135397 0.000434667 -0.00206627)
(0.135075 0.000478218 -0.000494851)
(0.132293 0.000561578 0.000911378)
(0.128104 0.000159409 -0.000221014)
(0.126851 -4.34518e-05 -0.00292431)
(0.126239 0.00065342 -0.00510575)
(0.126208 0.000699053 -0.0041104)
(0.126749 0.00069118 -0.00177692)
(0.127968 -7.28567e-05 -0.00401865)
(0.131286 -0.00104835 -0.00536901)
(0.134244 -0.00053166 -0.00222747)
(0.135967 -0.000152226 -0.000934731)
(0.136486 -0.000346984 -0.000569215)
(0.1353 -0.000584656 0.00234987)
(0.132708 -5.31631e-05 0.00321641)
(0.131709 0.00115105 -0.000927289)
(0.130751 0.00176291 -0.00285851)
(0.128291 0.00235421 5.60065e-05)
(0.125242 0.001601 0.00112)
(0.126424 -0.000339884 0.000603054)
(0.12965 -0.000119705 0.000304988)
(0.131166 0.000583151 -0.000123571)
(0.131637 0.00102062 0.00195024)
(0.130225 0.00207629 0.00152536)
(0.127857 0.00152575 -0.0013545)
(0.127151 0.000758555 0.00148839)
(0.126782 0.00158487 0.00490235)
(0.126808 0.00195779 0.00208416)
(0.128971 0.00117533 -0.00237358)
(0.13111 0.00126543 -0.00279759)
(0.12958 0.00251519 -0.00409725)
(0.128168 0.00277149 -0.00628001)
(0.12868 0.00207747 -0.00700751)
(0.130428 0.000648163 -0.00479688)
(0.133975 3.72844e-05 -0.0026994)
(0.132543 0.00125108 0.00186541)
(0.13081 0.00258082 0.00512113)
(0.128872 0.00173071 0.00660159)
(0.13067 -0.000966253 0.00485152)
(0.133944 -0.00160909 0.00107869)
(0.135708 -0.000340526 -0.00249603)
(0.135489 -0.000442585 -0.00631206)
(0.136517 -0.00110664 -0.00668662)
(0.135753 -0.000287864 -0.00393828)
(0.133349 0.00035576 -0.00308284)
(0.134829 0.000332069 -0.00208251)
(0.138841 0.000222324 0.000199678)
(0.141605 0.000243715 0.00104709)
(0.141501 0.000314124 5.32891e-05)
(0.138594 0.000736709 -0.00141339)
(0.136012 0.00105793 -0.00206694)
(0.136679 0.000687338 -0.000668613)
(0.135322 0.000791677 0.000944245)
(0.131266 0.000370791 3.22224e-05)
(0.128985 -0.000285498 -0.00207425)
(0.12862 0.00035468 -0.00393975)
(0.128658 0.000590155 -0.00399346)
(0.128931 0.000896592 -0.00155244)
(0.129017 0.00024727 -0.00207633)
(0.12981 -0.00128254 -0.00394119)
(0.131977 -0.00114279 -0.00181924)
(0.134462 -0.000622086 -0.000387309)
(0.135951 -0.000540137 -0.000682818)
(0.135802 -0.000980445 0.00174499)
(0.133918 -0.000646635 0.00416547)
(0.134848 0.000921159 0.00145583)
(0.135886 0.00189562 -0.0024433)
(0.134286 0.00290679 -0.00154408)
(0.129966 0.00243459 -0.00052266)
(0.128388 7.14231e-05 -0.00156118)
(0.130781 -0.000164318 -0.00198534)
(0.133029 0.000353137 -0.00264481)
(0.133697 0.000351456 -0.00078735)
(0.133028 0.00162817 0.000688457)
(0.130213 0.00135385 -0.00175743)
(0.129114 0.000476494 2.54613e-05)
(0.129189 0.00127122 0.00529236)
(0.129525 0.00161049 0.00500528)
(0.131609 0.000724086 0.000275918)
(0.13416 0.000870145 -0.000905873)
(0.133598 0.0027167 -0.00187079)
(0.132333 0.00353539 -0.00496637)
(0.132515 0.00291302 -0.00780816)
(0.13362 0.000933953 -0.00690332)
(0.136129 7.19471e-05 -0.00329289)
(0.132861 0.00141863 0.00153684)
(0.130916 0.00324572 0.00429222)
(0.128884 0.00250923 0.00560181)
(0.129815 -0.00092661 0.00459582)
(0.133447 -0.0017512 0.00121493)
(0.136334 0.000307232 -0.00232632)
(0.135128 -4.01874e-06 -0.00569014)
(0.134291 -0.00172356 -0.00644615)
(0.133626 -0.00133886 -0.00431455)
(0.131654 -0.000456759 -0.00325271)
(0.132678 -0.000237571 -0.00223509)
(0.136924 -0.000460668 -1.25093e-05)
(0.141422 -0.000202589 0.00130587)
(0.142986 0.000605997 0.000961787)
(0.139887 0.00167916 -0.000512433)
(0.136603 0.00184416 -0.00177344)
(0.137621 0.000771738 -0.000775624)
(0.137419 0.000748182 0.000857357)
(0.134277 0.000477492 5.77782e-05)
(0.131392 -0.000521066 -0.00169836)
(0.131007 -0.000228607 -0.00265555)
(0.131649 5.89734e-05 -0.00303706)
(0.132526 0.000876241 -0.00142018)
(0.131997 0.000930013 -0.000580716)
(0.129356 -0.000702109 -0.00174071)
(0.128512 -0.00120457 -0.000549229)
(0.130281 -0.00106158 0.000794907)
(0.132697 -0.000762633 0.000561795)
(0.133966 -0.0013032 0.00197637)
(0.132716 -0.00168538 0.00381307)
(0.13539 -0.0003213 0.00254743)
(0.13839 0.00115107 -0.00122177)
(0.137976 0.00291568 -0.00214033)
(0.133748 0.00303344 -0.00138027)
(0.130684 0.000488852 -0.00212529)
(0.132326 -0.00033966 -0.0025897)
(0.135072 0.000189162 -0.00326237)
(0.134315 -3.08767e-05 -0.00243895)
(0.1324 0.00112352 -0.00073508)
(0.128516 0.00094262 -0.00229918)
(0.126838 -7.29788e-07 -0.00136152)
(0.127391 0.000680937 0.00394485)
(0.128595 0.000639446 0.00550254)
(0.131811 -0.00051315 0.00183041)
(0.134792 -0.000271157 0.000453989)
(0.135224 0.00219159 6.13335e-07)
(0.135141 0.00373909 -0.00300698)
(0.136504 0.00361715 -0.00706402)
(0.137856 0.00145953 -0.00742341)
(0.138098 0.000803254 -0.00255033)
(0.132582 0.0021943 0.00162003)
(0.130454 0.00403228 0.00327748)
(0.129151 0.00312769 0.00371665)
(0.129604 -0.00122182 0.00270643)
(0.132646 -0.00253647 -0.000398093)
(0.135967 0.00049818 -0.00347566)
(0.134259 0.000711714 -0.00572354)
(0.132557 -0.00163868 -0.0059714)
(0.131025 -0.00203088 -0.00390567)
(0.128479 -0.00150938 -0.00254643)
(0.129015 -0.00124294 -0.00129069)
(0.132547 -0.00170717 0.000761563)
(0.137923 -0.00130383 0.00186075)
(0.141639 0.000479778 0.00173741)
(0.140111 0.00244699 0.000447048)
(0.137579 0.00250453 -0.00100129)
(0.138527 0.000802216 -0.000470498)
(0.138414 0.000618362 0.000764008)
(0.136024 0.000549739 8.97907e-05)
(0.133376 -0.000559376 -0.0012668)
(0.132948 -0.000863753 -0.00156273)
(0.134535 -0.000891412 -0.00207893)
(0.136797 0.000586904 -0.0012179)
(0.135606 0.00199962 0.000585101)
(0.12944 0.000755369 0.000173043)
(0.124699 -0.000485155 0.000413822)
(0.124613 -0.0013372 0.00145055)
(0.128221 -0.00121611 0.00176295)
(0.132509 -0.00156749 0.00269044)
(0.133202 -0.00287993 0.00305348)
(0.136749 -0.00243468 0.00178739)
(0.139712 -0.000482677 -0.00135923)
(0.138713 0.00236533 -0.00315024)
(0.134304 0.00317596 -0.00254376)
(0.131484 0.000453028 -0.00250131)
(0.133312 -0.00102205 -0.002475)
(0.136133 -0.000124536 -0.00260982)
(0.133705 0.000132402 -0.00255422)
(0.129427 0.00113553 -0.00184976)
(0.124678 0.000710579 -0.00288474)
(0.123078 -0.000304412 -0.00224358)
(0.123568 0.000361894 0.00188574)
(0.124358 -0.000574163 0.00347993)
(0.128459 -0.00255701 0.00106454)
(0.132272 -0.00225713 0.000310926)
(0.134085 0.00087192 0.000430988)
(0.135959 0.00308999 -0.00215438)
(0.139518 0.00367908 -0.00615831)
(0.141986 0.00210119 -0.00647364)
(0.139391 0.00207959 -0.00116707)
(0.133146 0.00350019 0.00139796)
(0.131363 0.00480065 0.00190797)
(0.130909 0.00349311 0.00188208)
(0.131028 -0.00150879 0.00081829)
(0.132185 -0.00327014 -0.00253346)
(0.134457 0.000541561 -0.00528185)
(0.13309 0.00107162 -0.00630155)
(0.132917 -0.00162149 -0.00586536)
(0.131139 -0.00225828 -0.00379073)
(0.127049 -0.00236998 -0.0019506)
(0.126534 -0.00244291 -2.57672e-06)
(0.128737 -0.00323106 0.00217767)
(0.133829 -0.00287577 0.00271572)
(0.138707 -0.000194217 0.00215747)
(0.139228 0.00259979 0.00111624)
(0.13816 0.0025788 0.000264266)
(0.13901 0.000714167 0.000531529)
(0.139019 0.000710691 0.000741635)
(0.137185 0.00088535 -8.27852e-05)
(0.135337 -0.000202542 -0.000875884)
(0.134706 -0.00124042 -0.000666115)
(0.136647 -0.00209377 -0.00094832)
(0.140094 0.000195845 -0.000374967)
(0.138202 0.00369938 0.00169177)
(0.130208 0.00307384 0.00139312)
(0.123391 0.000696812 0.000672019)
(0.121631 -0.0020105 0.00145877)
(0.125299 -0.00277814 0.00221598)
(0.132022 -0.00256111 0.00333252)
(0.134797 -0.00392677 0.00336345)
(0.137961 -0.00416016 0.00170142)
(0.139063 -0.00180527 -0.00140611)
(0.136808 0.00192933 -0.00372908)
(0.132291 0.00296716 -0.00325598)
(0.130505 -0.000274086 -0.00257133)
(0.13235 -0.0022565 -0.00204046)
(0.134147 -0.000637213 -0.00183731)
(0.131868 0.00050774 -0.00249937)
(0.127509 0.00142889 -0.00302668)
(0.123527 0.000609763 -0.00334537)
(0.122509 -0.000308436 -0.00224202)
(0.122224 0.00067013 0.000617574)
(0.121275 -0.00158404 0.00172321)
(0.124382 -0.00513651 0.000142807)
(0.128236 -0.00507616 -0.000366721)
(0.131417 -0.00138877 -0.000510739)
(0.135568 0.00135095 -0.00279801)
(0.140933 0.00272558 -0.00550095)
(0.144307 0.00247109 -0.00457)
(0.139907 0.00342318 -0.000108356)
(0.13575 0.00491618 0.00146157)
(0.135348 0.0052698 0.00187147)
(0.135209 0.00341403 0.00203002)
(0.134143 -0.00163779 0.00105685)
(0.131961 -0.00340628 -0.00300941)
(0.132749 0.000585031 -0.0063691)
(0.133271 0.000611619 -0.00688032)
(0.13593 -0.00220134 -0.00603161)
(0.135283 -0.00224958 -0.00417105)
(0.129819 -0.00288156 -0.00167773)
(0.127794 -0.00380563 0.00111289)
(0.1285 -0.00500192 0.00298347)
(0.132538 -0.00456281 0.00255288)
(0.136603 -0.0010722 0.00142593)
(0.137503 0.00233056 0.00117571)
(0.136971 0.00220614 0.00179758)
(0.13789 0.000425963 0.00196165)
(0.139592 0.000781197 0.000469794)
(0.138709 0.00124793 -0.0010028)
(0.137962 0.000423179 -0.00103432)
(0.136915 -0.0012665 5.99402e-05)
(0.137443 -0.00321255 0.000902639)
(0.140631 -0.000139152 0.0013547)
(0.138929 0.00549062 0.00247863)
(0.132361 0.00537129 0.00180504)
(0.126881 0.00187911 0.000660956)
(0.124451 -0.00232416 0.00144526)
(0.12571 -0.00405635 0.00243544)
(0.131317 -0.00335766 0.00387614)
(0.133623 -0.00400283 0.00442094)
(0.1353 -0.00425587 0.00297195)
(0.13501 -0.00193444 7.46773e-05)
(0.133483 0.0018888 -0.00276068)
(0.130188 0.00248221 -0.00309304)
(0.129104 -0.00140318 -0.00255824)
(0.129996 -0.00364417 -0.00188304)
(0.12989 -0.00161347 -0.00173853)
(0.129349 0.000238509 -0.00306041)
(0.127768 0.00144888 -0.0042926)
(0.125953 0.00068924 -0.00340307)
(0.125267 0.000171818 -0.000911372)
(0.124563 0.00157546 0.00196456)
(0.122965 -0.00194388 0.00358548)
(0.124416 -0.00729666 0.00194602)
(0.126896 -0.00798052 -0.000107778)
(0.130039 -0.00426194 -0.00167692)
(0.134915 -0.00131384 -0.00371339)
(0.139992 0.000906484 -0.00479397)
(0.143719 0.0023738 -0.00281403)
(0.139598 0.00367926 6.88596e-05)
(0.138129 0.00560459 0.00189325)
(0.138752 0.00585341 0.00291601)
(0.138156 0.0043117 0.0034413)
(0.136035 -0.000212497 0.00302381)
(0.132387 -0.00268195 -0.00128885)
(0.134274 -0.000255529 -0.00629163)
(0.137145 -0.00112286 -0.00751787)
(0.140989 -0.00349622 -0.00654131)
(0.14216 -0.00226236 -0.0049663)
(0.136278 -0.00280784 -0.00151525)
(0.132997 -0.00447679 0.001825)
(0.13234 -0.00600687 0.00235664)
(0.13426 -0.00552897 0.000858689)
(0.135277 -0.00149656 -0.000234282)
(0.134853 0.00220155 0.000738851)
(0.13445 0.0018491 0.00274912)
(0.135753 9.97529e-05 0.00256469)
(0.139989 0.000889104 -0.000636162)
(0.139987 0.00173212 -0.00241034)
(0.140285 0.00113522 -0.00153863)
(0.139182 -0.00090378 0.00016295)
(0.137457 -0.00359933 0.00226585)
(0.139102 -5.86541e-06 0.00304785)
(0.138575 0.00673103 0.00328383)
(0.135029 0.00637723 0.0022075)
(0.132253 0.00241048 0.000430865)