/*--------------------------------*- C++ -*----------------------------------*\
| =========                 |                                                 |
| \\      /  F ield         | OpenFOAM: The Open Source CFD Toolbox           |
|  \\    /   O peration     | Version:  2.3.0                                 |
|   \\  /    A nd           | Web:      www.OpenFOAM.org                      |
|    \\/     M anipulation  |                                                 |
\*---------------------------------------------------------------------------*/
FoamFile
{
    version     2.0;
    format      ascii;
    class       volVectorField;
    location    "100";
    object      UMean;
}
// * * * * * * * * * * * * * * * * * * * * * * * * * * * * * * * * * * * * * //

dimensions      [0 1 -1 0 0 0 0];

internalField   nonuniform List<vector> 
90000
(
(0.0127833 -1.74257e-06 -6.88268e-05)
(0.0127861 -9.06365e-07 -3.72741e-05)
(0.0127547 -5.1295e-07 -2.95113e-05)
(0.0127795 -7.62394e-07 -5.30343e-05)
(0.0127714 -9.90194e-07 -5.25053e-05)
(0.012768 1.51e-07 -4.0712e-05)
(0.0127466 -4.85609e-07 -1.43644e-05)
(0.0127495 -1.2769e-06 -1.477e-05)
(0.012722 3.31514e-08 -2.83934e-05)
(0.0127055 1.87968e-06 -4.71782e-05)
(0.012681 1.48723e-06 -5.75008e-05)
(0.0126664 3.23578e-06 -6.78497e-05)
(0.0126533 2.90607e-06 -8.49909e-05)
(0.0126765 1.95012e-06 -0.000100129)
(0.0126761 3.16912e-06 -9.45694e-05)
(0.012728 -2.64917e-07 -6.50759e-05)
(0.012714 -5.98294e-07 -3.4138e-05)
(0.0127626 -1.00392e-06 -3.34006e-05)
(0.0127695 -1.18246e-06 -1.42922e-05)
(0.0128095 -1.10572e-06 -6.11754e-06)
(0.0128361 3.1897e-09 1.85502e-05)
(0.012867 -4.48788e-07 2.90028e-05)
(0.0128558 -1.33976e-06 1.53657e-05)
(0.0128957 -2.01325e-06 6.47659e-07)
(0.0129068 -2.71629e-06 -5.95225e-08)
(0.0129459 -4.25146e-07 -1.91868e-05)
(0.0129354 -3.17529e-07 -5.30031e-05)
(0.0129132 5.68394e-07 -9.31572e-05)
(0.0128847 1.81727e-06 -0.000139415)
(0.0128982 2.21658e-07 -0.000150893)
(0.0128133 1.55841e-06 -0.000178286)
(0.0128546 3.00576e-06 -0.000181484)
(0.0128819 3.30043e-07 -0.000169326)
(0.0129157 -9.09451e-07 -0.000129822)
(0.0129286 -5.03735e-07 -7.96754e-05)
(0.0129426 -4.88729e-07 -1.85657e-05)
(0.0129166 -4.45192e-07 6.40531e-06)
(0.0128756 -2.39854e-06 2.37936e-05)
(0.0128539 -4.238e-06 -1.81496e-06)
(0.0128461 -9.74241e-07 -1.06066e-05)
(0.0127605 -5.7491e-06 -1.01288e-05)
(0.0129884 -6.26355e-06 1.87276e-06)
(0.013018 -2.21337e-06 -3.83467e-05)
(0.0130664 -4.49417e-07 -9.76095e-05)
(0.0130614 -2.77539e-07 -0.000152288)
(0.0130947 7.06709e-08 -0.000167821)
(0.0130552 3.02657e-07 -0.000170082)
(0.0130466 1.14513e-06 -0.000158577)
(0.0129374 2.56556e-06 -0.000144902)
(0.0129539 1.12714e-06 -0.000105073)
(0.0383359 -1.50701e-05 -0.000161372)
(0.0382254 -2.52362e-05 -0.000104002)
(0.0380981 -2.91945e-05 -5.83748e-05)
(0.0381336 -3.11108e-05 -5.40951e-05)
(0.0381138 -3.29247e-05 -3.91207e-05)
(0.0381131 -3.08152e-05 -2.18694e-05)
(0.0380813 -3.13649e-05 2.83178e-05)
(0.0380897 -3.0982e-05 2.68874e-05)
(0.0380099 -2.87755e-05 4.2258e-06)
(0.0380074 -2.33886e-05 -4.71447e-05)
(0.0379404 -2.38607e-05 -8.28923e-05)
(0.0379176 -2.35276e-05 -0.000109243)
(0.0379007 -2.52919e-05 -0.000158225)
(0.0379653 -2.60764e-05 -0.000202643)
(0.0379839 -2.65234e-05 -0.000212291)
(0.0381466 -2.85112e-05 -0.000172468)
(0.0380861 -2.78499e-05 -0.000112992)
(0.0382092 -3.10424e-05 -8.16292e-05)
(0.0382207 -2.90962e-05 -1.33691e-05)
(0.0383224 -3.07089e-05 7.09084e-07)
(0.0383678 -2.89356e-05 4.63674e-05)
(0.0385098 -2.55004e-05 9.64406e-05)
(0.0384902 -2.79308e-05 9.24625e-05)
(0.0386155 -3.39708e-05 9.0491e-05)
(0.038622 -3.27018e-05 9.66874e-05)
(0.0387479 -3.41877e-05 5.68254e-05)
(0.0387707 -2.74897e-05 -1.74505e-05)
(0.0387618 -2.31219e-05 -7.83113e-05)
(0.03872 -2.66764e-05 -0.000175475)
(0.0387623 -2.67524e-05 -0.000199658)
(0.0384887 -3.1582e-05 -0.000262041)
(0.0386724 -4.10199e-05 -0.000285411)
(0.0387593 -3.96008e-05 -0.000264328)
(0.0388057 -3.77083e-05 -0.000200632)
(0.0388141 -3.2999e-05 -0.000126619)
(0.0388455 -2.98294e-05 -1.75202e-05)
(0.0388058 -2.47986e-05 3.40589e-05)
(0.0386902 -2.44103e-05 8.42238e-05)
(0.0385762 -2.94381e-05 5.48335e-05)
(0.0385046 -2.56837e-05 6.10213e-05)
(0.0383756 -4.1598e-05 2.19811e-05)
(0.0384643 -4.60004e-05 3.54445e-05)
(0.0384063 -3.29764e-05 -2.29209e-05)
(0.0385246 -2.79288e-05 -0.00012472)
(0.0385071 -2.56184e-05 -0.000248981)
(0.0386752 -2.41312e-05 -0.000282644)
(0.0386466 -2.25806e-05 -0.0003128)
(0.0387515 -1.39961e-05 -0.000291067)
(0.0385955 -2.03535e-05 -0.000284498)
(0.0387289 -7.54773e-06 -0.000212831)
(0.064074 -8.1655e-05 -0.000183205)
(0.0639494 -9.72136e-05 -0.000165193)
(0.0637847 -0.000108319 -0.000124162)
(0.0638024 -0.000114177 -8.75655e-05)
(0.0637409 -0.000113837 -7.08626e-05)
(0.063712 -0.00010935 -4.24088e-05)
(0.0635907 -0.000110478 2.29878e-05)
(0.0635885 -0.000107801 3.66566e-05)
(0.0633446 -0.000101511 1.50632e-05)
(0.0633219 -9.18593e-05 -4.2147e-05)
(0.0631212 -8.824e-05 -7.97002e-05)
(0.0631124 -8.33589e-05 -0.000143389)
(0.0630667 -8.39093e-05 -0.000188193)
(0.0631215 -7.35178e-05 -0.000224704)
(0.0632142 -9.48784e-05 -0.000269382)
(0.0634764 -9.20067e-05 -0.000226195)
(0.0634676 -8.56971e-05 -0.000183988)
(0.0636866 -9.27657e-05 -0.000116035)
(0.0636968 -9.21513e-05 -4.93973e-05)
(0.0639219 -9.46572e-05 2.62548e-05)
(0.0639318 -9.97618e-05 0.000102629)
(0.0642352 -0.000112219 0.000179986)
(0.0642586 -0.000120613 0.000201878)
(0.0644209 -0.000128909 0.000249353)
(0.0644166 -0.000124006 0.00028971)
(0.0645185 -0.000132312 0.000256314)
(0.0645141 -0.000122553 0.000179436)
(0.0645532 -0.00011052 8.14177e-05)
(0.064469 -0.000110096 -3.67016e-06)
(0.0644028 -9.57426e-05 -4.25566e-05)
(0.0641044 -0.000101987 -0.000122161)
(0.0639961 -0.000126143 -0.000143542)
(0.0639214 -0.000121456 -0.000119526)
(0.0638663 -0.000117084 -7.15139e-05)
(0.063851 -0.000113388 -3.93339e-05)
(0.0639071 -0.000108648 5.45675e-05)
(0.0639154 -9.92959e-05 8.9165e-05)
(0.0638935 -9.85059e-05 0.000157253)
(0.0638402 -9.48283e-05 0.000129966)
(0.063875 -0.000105746 0.000176915)
(0.0638889 -0.000119858 8.91227e-05)
(0.0639729 -0.000124328 0.000104877)
(0.0639441 -0.000123011 -2.58832e-05)
(0.0641814 -0.000119645 -0.000121606)
(0.0641699 -0.000127251 -0.000266523)
(0.0644323 -0.00012684 -0.000241283)
(0.0643761 -0.000127153 -0.000286156)
(0.064554 -0.000104523 -0.000242886)
(0.0643359 -0.000102294 -0.000287592)
(0.0643995 -6.98443e-05 -0.000200885)
(0.0880928 -0.000205134 -0.000276193)
(0.0879399 -0.00022847 -0.000284592)
(0.0876892 -0.000248702 -0.00031192)
(0.0876536 -0.000253427 -0.000238184)
(0.0875053 -0.000250215 -0.000234769)
(0.087498 -0.000230298 -0.000150883)
(0.0873233 -0.000230847 -8.3105e-05)
(0.0873999 -0.000218375 -2.09319e-05)
(0.0871478 -0.00021436 -3.51513e-05)
(0.0872651 -0.000204372 -5.39064e-05)
(0.0869955 -0.000209707 -0.000127902)
(0.0871068 -0.000227646 -0.000146668)
(0.0870954 -0.00023495 -0.000231212)
(0.0871567 -0.000225369 -0.000251771)
(0.0871311 -0.000246652 -0.000349441)
(0.0872788 -0.000236242 -0.000257771)
(0.0871263 -0.000216534 -0.000242359)
(0.087214 -0.000209583 -0.000123621)
(0.0870949 -0.000203052 -0.000119226)
(0.0871751 -0.000201285 6.16286e-05)
(0.0871674 -0.000201658 0.000150615)
(0.0871458 -0.000209566 0.000300946)
(0.086985 -0.00022057 0.000333357)
(0.0870205 -0.000241781 0.000436124)
(0.0870084 -0.000232561 0.000466005)
(0.0870986 -0.000255559 0.000469213)
(0.0871514 -0.000250618 0.000358466)
(0.087343 -0.00024685 0.000302656)
(0.0873615 -0.000242719 0.000249978)
(0.0874783 -0.000238425 0.000233823)
(0.0873404 -0.000240207 0.00013535)
(0.0874051 -0.000273487 0.000126778)
(0.0874535 -0.000270633 0.000132321)
(0.0874757 -0.000265062 0.000171947)
(0.0875516 -0.000260436 0.000152187)
(0.0876504 -0.000256735 0.000157078)
(0.0876671 -0.000243495 0.000137879)
(0.0877321 -0.000242641 0.000216967)
(0.0876687 -0.000230213 0.000192237)
(0.0876945 -0.000238706 0.000219995)
(0.0876594 -0.00024671 9.64147e-05)
(0.0876652 -0.000242697 4.80607e-05)
(0.0875273 -0.000258986 -0.000114641)
(0.0877564 -0.000258781 -0.000185524)
(0.0877066 -0.000269298 -0.000308743)
(0.0880329 -0.000268457 -0.000264341)
(0.0879603 -0.000269116 -0.000304432)
(0.0883377 -0.000243464 -0.000233317)
(0.0881764 -0.00024534 -0.000288127)
(0.0885894 -0.000196896 -0.000229083)
(0.108239 -0.000395669 -0.000479997)
(0.108197 -0.000425647 -0.000506004)
(0.108179 -0.000457259 -0.000551436)
(0.108128 -0.000468315 -0.000450859)
(0.107985 -0.000472769 -0.000468667)
(0.107918 -0.000446452 -0.000326001)
(0.107689 -0.000442426 -0.000289619)
(0.107592 -0.000418357 -0.000158185)
(0.107374 -0.000395561 -0.000178607)
(0.107277 -0.000366794 -0.000140409)
(0.107008 -0.000350315 -0.000231101)
(0.106754 -0.000342168 -0.000194981)
(0.106358 -0.000337801 -0.000262132)
(0.106138 -0.000319366 -0.000262091)
(0.10577 -0.00034265 -0.000355857)
(0.105631 -0.000337728 -0.000255695)
(0.105375 -0.00031745 -0.000235011)
(0.105377 -0.000316364 -6.49613e-05)
(0.105229 -0.00031433 -0.000119679)
(0.105338 -0.000335092 0.000125566)
(0.10533 -0.0003452 0.000145941)
(0.105503 -0.000357052 0.000408932)
(0.105564 -0.000379633 0.000411971)
(0.105812 -0.000420206 0.000551639)
(0.105998 -0.000419316 0.000540838)
(0.106302 -0.000446964 0.000628072)
(0.106515 -0.00045015 0.000446392)
(0.10679 -0.00045244 0.000490126)
(0.106853 -0.00045282 0.000377791)
(0.107054 -0.000436676 0.00043647)
(0.106844 -0.000425673 0.000302048)
(0.106935 -0.000459569 0.000308706)
(0.106823 -0.000464824 0.000219252)
(0.106908 -0.000461221 0.000350886)
(0.106854 -0.000451321 0.000270763)
(0.106934 -0.00044218 0.000267413)
(0.106892 -0.000427598 0.000166095)
(0.107075 -0.000423715 0.000222742)
(0.107143 -0.000409735 0.000175044)
(0.10743 -0.000420226 0.000171128)
(0.107599 -0.000437799 1.86249e-05)
(0.107812 -0.000441961 -6.25286e-05)
(0.107913 -0.000477676 -0.000243228)
(0.108156 -0.000491392 -0.000320653)
(0.10818 -0.000528509 -0.000493672)
(0.10835 -0.000526084 -0.000479139)
(0.108332 -0.000543651 -0.000570506)
(0.108483 -0.000501653 -0.000480417)
(0.108343 -0.000502877 -0.000525841)
(0.108501 -0.000436428 -0.000452995)
(0.121356 -0.000653502 -0.000443495)
(0.121351 -0.000669909 -0.00041165)
(0.12143 -0.000688539 -0.000492166)
(0.121221 -0.000673665 -0.000411527)
(0.121187 -0.000669935 -0.000400209)
(0.120859 -0.000627404 -0.000344241)
(0.120797 -0.000619164 -0.000319394)
(0.120546 -0.000589694 -0.000189621)
(0.120533 -0.000574171 -0.000245416)
(0.120374 -0.000543036 -0.000172978)
(0.120315 -0.000547641 -0.000263542)
(0.120099 -0.000532729 -0.000200908)
(0.120049 -0.000558445 -0.000288222)
(0.119916 -0.000532038 -0.000221397)
(0.119827 -0.000563277 -0.000299483)
(0.119803 -0.000555096 -0.000222791)
(0.11977 -0.000545779 -0.000227366)
(0.119886 -0.00053486 -5.23301e-05)
(0.119807 -0.00053439 -8.76292e-05)
(0.119804 -0.000536104 9.44078e-05)
(0.119754 -0.000543888 0.000115439)
(0.119793 -0.000550232 0.000362369)
(0.119795 -0.000575904 0.000349636)
(0.119782 -0.000619778 0.000452285)
(0.1198 -0.000632273 0.000416627)
(0.119917 -0.000666126 0.000494451)
(0.120023 -0.000661388 0.000350782)
(0.120232 -0.000656541 0.000325518)
(0.120289 -0.000683109 0.000231974)
(0.120698 -0.000677971 0.000264474)
(0.120775 -0.000672465 0.00014849)
(0.12107 -0.000715702 0.000137002)
(0.12127 -0.000726378 1.14347e-05)
(0.121503 -0.000716652 0.000149299)
(0.121601 -0.000708976 0.000129063)
(0.121678 -0.000698084 0.000185615)
(0.121649 -0.000687068 6.93287e-05)
(0.121689 -0.000685474 9.58344e-05)
(0.121757 -0.000673025 5.96006e-05)
(0.121849 -0.000663624 6.57138e-05)
(0.121972 -0.000670812 -4.72231e-05)
(0.121986 -0.000662561 -9.75788e-05)
(0.121982 -0.000683708 -0.000240164)
(0.121885 -0.000682331 -0.000320335)
(0.121792 -0.000696062 -0.000553931)
(0.121552 -0.000707592 -0.000584676)
(0.121553 -0.000718193 -0.000701406)
(0.121244 -0.000703881 -0.000593601)
(0.121427 -0.000703002 -0.000619567)
(0.121025 -0.000669146 -0.000454187)
(0.129822 -0.000865042 -0.000162282)
(0.129494 -0.000866616 -5.76697e-05)
(0.129554 -0.000896408 -0.000171845)
(0.129291 -0.000881839 -0.000127129)
(0.129538 -0.000890965 -0.000109775)
(0.129413 -0.000841203 -3.45963e-05)
(0.129761 -0.000835515 2.16748e-05)
(0.129687 -0.000793125 0.000132107)
(0.129946 -0.000776033 0.000128834)
(0.129783 -0.000723365 0.000144234)
(0.129959 -0.000705871 0.000101164)
(0.129652 -0.00066037 0.000140383)
(0.129762 -0.000686982 6.53821e-05)
(0.129392 -0.000650294 9.66039e-05)
(0.129349 -0.000687249 1.83991e-05)
(0.128921 -0.000684315 6.65587e-05)
(0.128887 -0.000698822 4.83696e-05)
(0.128625 -0.000683232 0.000135271)
(0.128647 -0.000705067 0.00011745)
(0.128518 -0.000728707 0.000263678)
(0.1286 -0.000761779 0.000221609)
(0.128568 -0.000780488 0.00040732)
(0.128805 -0.000799038 0.000316333)
(0.128792 -0.000826355 0.000421635)
(0.129051 -0.000852952 0.000316179)
(0.129 -0.000887751 0.000392674)
(0.129232 -0.000911618 0.000229676)
(0.129278 -0.000901574 0.000166328)
(0.129495 -0.000939297 3.99836e-06)
(0.129528 -0.000916722 6.74223e-05)
(0.129724 -0.000904003 -4.02243e-05)
(0.129745 -0.00090815 -4.30737e-05)
(0.129988 -0.000920635 -0.000128298)
(0.129998 -0.000886279 1.54287e-05)
(0.130005 -0.000851556 2.65087e-05)
(0.1298 -0.000799182 0.000124927)
(0.129689 -0.000795985 0.000112733)
(0.129511 -0.000795961 0.00019272)
(0.129441 -0.000796885 0.000101544)
(0.129449 -0.000803388 0.000139975)
(0.129464 -0.000840191 3.15093e-05)
(0.12945 -0.000854586 3.40546e-05)
(0.129358 -0.000896089 -9.1406e-05)
(0.129357 -0.000900544 -0.000134031)
(0.12935 -0.000940957 -0.000411603)
(0.12944 -0.000952333 -0.00036678)
(0.129532 -0.000980276 -0.000528476)
(0.129817 -0.000937992 -0.000351259)
(0.129904 -0.000945883 -0.00042471)
(0.12992 -0.000848898 -0.000167399)
(0.134628 -0.000901656 0.000335774)
(0.134351 -0.000874674 0.000410637)
(0.134717 -0.000880078 0.000310769)
(0.134507 -0.000877896 0.000349581)
(0.134855 -0.000877524 0.000337661)
(0.13457 -0.000847047 0.000420782)
(0.134829 -0.000855194 0.000459901)
(0.13447 -0.000822076 0.000578347)
(0.134754 -0.000812685 0.000528709)
(0.134465 -0.000793685 0.000544193)
(0.134849 -0.000812825 0.000421645)
(0.134738 -0.000798907 0.000371062)
(0.135072 -0.000843486 0.000235291)
(0.134879 -0.0007858 0.000237599)
(0.135064 -0.000824138 0.000149981)
(0.134705 -0.000839471 0.000197011)
(0.134847 -0.000869912 0.000147856)
(0.134537 -0.000860586 0.000213237)
(0.134711 -0.000870518 0.000179532)
(0.134377 -0.000872164 0.000233316)
(0.13441 -0.000902565 0.000255291)
(0.134061 -0.00090382 0.000408581)
(0.134293 -0.00093644 0.000322493)
(0.134073 -0.000958408 0.000423987)
(0.134337 -0.000972105 0.00031945)
(0.13404 -0.000963528 0.000362186)
(0.134144 -0.000986598 0.000170833)
(0.133784 -0.000996128 0.00019479)
(0.133976 -0.00105448 -1.71735e-05)
(0.133751 -0.00103258 0.000107611)
(0.13404 -0.00103719 -3.07315e-05)
(0.133917 -0.00104562 2.40221e-06)
(0.134098 -0.00108093 -6.38901e-05)
(0.133932 -0.00105016 8.97486e-05)
(0.134007 -0.00102847 8.9812e-05)
(0.133936 -0.000970627 0.0002385)
(0.134116 -0.000965631 0.000189829)
(0.134172 -0.000933212 0.000353304)
(0.134386 -0.000904857 0.000244946)
(0.134308 -0.000875342 0.0003312)
(0.13433 -0.000888622 0.000206017)
(0.134238 -0.000866349 0.000278823)
(0.134349 -0.000881267 0.000102156)
(0.134357 -0.000873166 0.000151923)
(0.134504 -0.000915333 -9.1203e-05)
(0.134518 -0.000952114 -3.99569e-05)
(0.134527 -0.000997411 -0.000144284)
(0.134458 -0.00101037 5.87419e-05)
(0.134483 -0.000980153 1.77253e-05)
(0.134479 -0.000949087 0.000313597)
(0.137898 -0.000904734 0.000659141)
(0.137614 -0.00093675 0.000707724)
(0.138027 -0.000978898 0.00061846)
(0.137934 -0.000964365 0.000629358)
(0.138279 -0.000942888 0.000552899)
(0.138082 -0.000895916 0.000588516)
(0.138275 -0.000888259 0.000585061)
(0.137978 -0.000835856 0.000670803)
(0.138261 -0.000818713 0.000645812)
(0.138053 -0.000765678 0.000603613)
(0.138362 -0.000778981 0.000487304)
(0.138082 -0.000760327 0.000430491)
(0.138289 -0.000801151 0.000306206)
(0.138079 -0.000764318 0.000261773)
(0.138425 -0.000779057 0.0001664)
(0.137996 -0.000766976 0.000203413)
(0.138168 -0.000781042 0.000178231)
(0.137629 -0.000788159 0.00021514)
(0.137631 -0.000828575 0.000186413)
(0.137236 -0.000846437 0.000276668)
(0.137285 -0.000881925 0.000304121)
(0.136993 -0.000912295 0.000507677)
(0.137226 -0.000974685 0.000477423)
(0.136829 -0.00100261 0.000573207)
(0.13703 -0.00102606 0.000455383)
(0.136745 -0.00102516 0.000503697)
(0.13702 -0.0010351 0.000321572)
(0.137019 -0.00101539 0.000272057)
(0.137291 -0.00102519 0.000132598)
(0.13724 -0.000980673 0.000128949)
(0.13748 -0.000972971 -6.78204e-06)
(0.137271 -0.000948298 1.74148e-05)
(0.137492 -0.000957491 -7.49735e-05)
(0.137365 -0.000912883 6.00287e-05)
(0.137657 -0.000895744 1.05642e-05)
(0.137533 -0.000851998 9.14313e-05)
(0.137772 -0.000864342 6.16761e-05)
(0.137604 -0.00084632 0.000190263)
(0.137861 -0.000847663 7.14099e-05)
(0.137674 -0.000808899 0.000135873)
(0.13782 -0.000845765 2.35726e-05)
(0.137696 -0.000837315 0.000127969)
(0.137977 -0.000891727 -2.52181e-05)
(0.137923 -0.000873289 -7.68962e-06)
(0.138153 -0.000936827 -0.000209259)
(0.137962 -0.000952293 -0.000123204)
(0.138019 -0.0010223 -0.000111828)
(0.137744 -0.000999983 0.000162485)
(0.13778 -0.001015 0.000249553)
(0.137638 -0.000914953 0.000525619)
(0.139816 -0.000867122 0.000337996)
(0.139573 -0.000859546 0.000494608)
(0.139829 -0.000923073 0.000349511)
(0.139735 -0.000932939 0.000444932)
(0.140095 -0.000927057 0.000291767)
(0.140052 -0.000862764 0.000416052)
(0.140297 -0.000822653 0.000310917)
(0.140015 -0.000790512 0.000436843)
(0.140141 -0.000802711 0.000345397)
(0.139873 -0.000807254 0.000402426)
(0.140003 -0.000820209 0.000231966)
(0.139852 -0.000807889 0.000249019)
(0.139929 -0.000844308 6.50989e-05)
(0.139706 -0.000855636 6.57891e-05)
(0.139772 -0.000876051 -7.61704e-05)
(0.139404 -0.000865818 3.62074e-05)
(0.139592 -0.000868994 -4.37436e-05)
(0.139378 -0.000831106 9.56358e-05)
(0.139561 -0.000825998 4.58436e-05)
(0.139443 -0.00079541 0.000225776)
(0.139599 -0.000801149 0.000205203)
(0.139507 -0.000815238 0.000431713)
(0.139749 -0.000822085 0.000375155)
(0.139589 -0.000817512 0.000513711)
(0.139945 -0.000834715 0.000381054)
(0.139809 -0.000840432 0.000483517)
(0.140138 -0.000879069 0.000304776)
(0.140104 -0.000907466 0.000304992)
(0.140331 -0.000942024 0.000148162)
(0.140322 -0.000938532 0.000128431)
(0.14056 -0.000953732 -8.34147e-05)
(0.14052 -0.000949096 -8.94075e-05)
(0.140761 -0.000960702 -0.00015751)
(0.140699 -0.00092412 -6.33836e-05)
(0.140903 -0.000916547 -0.000157401)
(0.14073 -0.000882318 -0.000156844)
(0.140762 -0.000891496 -0.00024187)
(0.140561 -0.000874296 -0.00010255)
(0.14058 -0.00085646 -0.000249588)
(0.140351 -0.000815547 -0.000146083)
(0.140413 -0.000820045 -0.00021665)
(0.140261 -0.000795352 -3.64103e-05)
(0.140253 -0.00082406 -0.00017234)
(0.140105 -0.000849685 -0.000156518)
(0.140265 -0.000891197 -0.000298515)
(0.140035 -0.000884986 -0.000163526)
(0.140174 -0.000852699 -0.000232799)
(0.139882 -0.000856787 3.25511e-05)
(0.139995 -0.000866913 3.79311e-06)
(0.139568 -0.000899488 0.000298212)
(0.14047 -0.000742515 6.49065e-05)
(0.140302 -0.000764231 0.000239874)
(0.140432 -0.000833448 8.84809e-05)
(0.140252 -0.000889393 0.000182843)
(0.140437 -0.000957331 8.01587e-05)
(0.140286 -0.000940557 0.000188329)
(0.140505 -0.000921255 7.47399e-05)
(0.140333 -0.000859275 0.000205096)
(0.140547 -0.000833901 0.000143056)
(0.140429 -0.000772669 0.000240243)
(0.140562 -0.000765193 9.05137e-05)
(0.140527 -0.000737435 0.00015468)
(0.140581 -0.000751126 -3.22955e-05)
(0.14052 -0.000727721 -2.3573e-05)
(0.14066 -0.000731228 -0.000208329)
(0.140622 -0.000702406 -0.000110945)
(0.140867 -0.000731829 -0.000237378)
(0.140875 -0.000728066 -7.32611e-05)
(0.141112 -0.000761418 -0.000188591)
(0.141149 -0.000743701 1.78053e-05)
(0.141439 -0.000779386 -3.42752e-05)
(0.141411 -0.000816063 0.000182358)
(0.141786 -0.000852946 0.000125861)
(0.141676 -0.000867838 0.000273636)
(0.141996 -0.000922439 0.000120167)
(0.141857 -0.000912722 0.000201427)
(0.142007 -0.000948749 3.06764e-05)
(0.141762 -0.000919608 9.06936e-05)
(0.141758 -0.000927623 -2.53089e-05)
(0.141596 -0.000880729 1.34838e-05)
(0.141636 -0.000857082 -0.000185587)
(0.141543 -0.000786673 -0.000135514)
(0.141495 -0.000769408 -0.000203117)
(0.141356 -0.000709024 -4.74061e-05)
(0.141295 -0.00072313 -0.000198056)
(0.141201 -0.000674447 -0.000108299)
(0.141133 -0.000695197 -0.000177659)
(0.141035 -0.00067483 -3.07037e-05)
(0.140965 -0.000692826 -0.000121863)
(0.14088 -0.000666337 3.48684e-05)
(0.140705 -0.000747047 -9.07021e-05)
(0.140751 -0.000736466 6.08802e-05)
(0.140673 -0.000791204 -0.000137844)
(0.140747 -0.000770212 -5.71551e-05)
(0.140626 -0.00084978 -0.000241007)
(0.140656 -0.00081614 -0.000120519)
(0.140528 -0.000817253 -0.000320568)
(0.140564 -0.000743794 -0.000120808)
(0.140475 -0.000773661 -0.000273126)
(0.140481 -0.000681188 1.28753e-05)
(0.141458 -0.000730297 2.09964e-06)
(0.141481 -0.000679016 4.3374e-05)
(0.141431 -0.000696534 -4.97378e-05)
(0.141571 -0.000698518 -7.72796e-06)
(0.141568 -0.000730154 -7.08089e-05)
(0.141724 -0.000701164 -1.49882e-07)
(0.141728 -0.00071505 -2.33346e-05)
(0.141924 -0.000701164 9.45598e-05)
(0.141966 -0.000735819 0.000128555)
(0.142204 -0.000702334 0.000224606)
(0.142198 -0.000749678 0.000190726)
(0.142436 -0.000761933 0.000221656)
(0.142434 -0.000792888 0.000114892)
(0.142614 -0.000813461 9.09486e-05)
(0.142529 -0.000860167 -3.34335e-05)
(0.142623 -0.000858767 -3.625e-05)
(0.142519 -0.00087345 -0.000102988)
(0.14255 -0.000845262 -5.50554e-05)
(0.142458 -0.000837291 -9.28789e-05)
(0.142482 -0.000794981 -8.28743e-06)
(0.142459 -0.000787976 -2.11483e-05)
(0.142503 -0.000768903 8.54024e-05)
(0.142452 -0.000783075 8.21927e-05)
(0.142402 -0.000779035 0.000133088)
(0.142196 -0.000826721 2.90657e-05)
(0.142141 -0.000799097 1.48926e-05)
(0.141916 -0.000818227 -6.99094e-05)
(0.141821 -0.000779571 -3.91473e-05)
(0.141595 -0.000801325 -0.000106558)
(0.141534 -0.000766478 -8.27214e-05)
(0.141326 -0.000784241 -0.000223509)
(0.141317 -0.000770556 -0.000186826)
(0.141153 -0.00074916 -0.000250104)
(0.141209 -0.00066954 -0.000166976)
(0.141074 -0.000695828 -0.000241874)
(0.14113 -0.000705595 -0.000167904)
(0.141005 -0.000733889 -0.000151198)
(0.141151 -0.000737956 -5.55011e-05)
(0.141082 -0.000726013 -5.49291e-05)
(0.141251 -0.000667318 5.7574e-05)
(0.141067 -0.000664714 4.3725e-05)
(0.141261 -0.000647111 0.000107962)
(0.141097 -0.000665809 6.7475e-07)
(0.141343 -0.000666786 -6.17433e-06)
(0.141225 -0.000685627 -9.86307e-05)
(0.141421 -0.000717148 -1.86373e-05)
(0.141174 -0.0007041 -0.00012528)
(0.141431 -0.000720818 -5.32021e-05)
(0.141304 -0.000704359 -0.00015002)
(0.141565 -0.000758963 -2.07012e-05)
(0.143099 -0.000773846 0.000135298)
(0.143256 -0.000761423 0.000158706)
(0.143268 -0.00077893 5.77582e-05)
(0.143418 -0.000793221 8.95806e-05)
(0.143378 -0.00081866 1.42095e-05)
(0.143417 -0.000769427 9.31018e-05)
(0.143262 -0.000727352 9.28643e-05)
(0.14324 -0.000697179 0.00023402)
(0.14307 -0.000683661 0.000268601)
(0.143072 -0.00063888 0.000396314)
(0.142896 -0.000634213 0.000359407)
(0.142908 -0.000628037 0.000413531)
(0.142736 -0.000615623 0.000345119)
(0.14271 -0.000624264 0.000368313)
(0.142407 -0.000661779 0.000268488)
(0.142291 -0.0006708 0.000287779)
(0.141968 -0.000691819 0.000208762)
(0.141913 -0.00071476 0.000272509)
(0.141707 -0.000731753 0.000215468)
(0.141705 -0.000732915 0.000297985)
(0.141585 -0.000784887 0.00026776)
(0.141654 -0.000836034 0.000350679)
(0.141642 -0.00088695 0.000344492)
(0.141756 -0.000860331 0.000386436)
(0.141725 -0.000863583 0.000307773)
(0.141815 -0.000832686 0.000314509)
(0.141762 -0.000817076 0.000267131)
(0.141824 -0.000769089 0.000297433)
(0.141771 -0.000754206 0.000224153)
(0.141808 -0.000700249 0.000204474)
(0.141747 -0.000676466 8.03897e-05)
(0.141748 -0.000625012 5.19654e-05)
(0.141683 -0.000598841 -5.51418e-05)
(0.141681 -0.000541508 -3.61076e-05)
(0.141718 -0.00058915 -9.69396e-05)
(0.141796 -0.000594074 -5.79233e-05)
(0.141863 -0.000653097 -6.23388e-05)
(0.141974 -0.000669416 2.76851e-05)
(0.142068 -0.000693117 1.62302e-05)
(0.14228 -0.000646294 0.000133601)
(0.142445 -0.000713573 0.000109388)
(0.142726 -0.000706762 0.000204293)
(0.142891 -0.000753923 0.000128155)
(0.143144 -0.000774799 0.000145549)
(0.143276 -0.000842868 9.76586e-05)
(0.143318 -0.000797851 0.000177537)
(0.143234 -0.000800872 0.000105201)
(0.143214 -0.000757407 0.000136434)
(0.14322 -0.000803463 4.79481e-05)
(0.143188 -0.000765675 0.000109231)
(0.142838 -0.000755094 0.000339407)
(0.142851 -0.000729763 0.000387481)
(0.142725 -0.000703941 0.000337444)
(0.14275 -0.000705512 0.000353772)
(0.142613 -0.000707826 0.000307835)
(0.142583 -0.000676037 0.000352706)
(0.142386 -0.000658264 0.000354746)
(0.142363 -0.000686885 0.000439894)
(0.142239 -0.000693007 0.000456434)
(0.142277 -0.000678038 0.000515256)
(0.142132 -0.000703062 0.000471384)
(0.1422 -0.000754934 0.000487455)
(0.142101 -0.000791429 0.000430848)
(0.142218 -0.000804307 0.000439062)
(0.142075 -0.000809926 0.000390795)
(0.142063 -0.000797411 0.000402373)
(0.141815 -0.000802565 0.000353078)
(0.141761 -0.000826367 0.00038804)
(0.141533 -0.000804913 0.000364654)
(0.141469 -0.000786465 0.000407967)
(0.141222 -0.000796303 0.000382663)
(0.141225 -0.000786601 0.000426234)
(0.141064 -0.000784028 0.000384938)
(0.141128 -0.000773847 0.000403834)
(0.141047 -0.000775329 0.000344472)
(0.141215 -0.00075518 0.000367838)
(0.141236 -0.000745978 0.000316393)
(0.141509 -0.000732571 0.000296964)
(0.141593 -0.000716944 0.000194209)
(0.141939 -0.000721376 0.000138066)
(0.142087 -0.000736015 1.42253e-05)
(0.142446 -0.000735618 -3.25003e-05)
(0.142515 -0.00072643 -0.000134833)
(0.142827 -0.000725636 -0.000142903)
(0.142875 -0.000751665 -0.000170308)
(0.143135 -0.000750357 -0.000118157)
(0.143074 -0.000735805 -8.05516e-05)
(0.143246 -0.000728832 5.95567e-06)
(0.143132 -0.000710483 1.97185e-05)
(0.143327 -0.000711206 9.27138e-05)
(0.143241 -0.000732331 9.50834e-05)
(0.14348 -0.000721579 0.000179689)
(0.143384 -0.000696445 0.000175542)
(0.143575 -0.000727284 0.000198043)
(0.143443 -0.000727694 0.000203234)
(0.143566 -0.000722605 0.000263278)
(0.143359 -0.000709274 0.000236161)
(0.143386 -0.00075941 0.000265813)
(0.143172 -0.000771246 0.000230506)
(0.143108 -0.000767656 0.000290253)
(0.142766 -0.000563043 0.000297286)
(0.142809 -0.000607403 0.000347473)
(0.142751 -0.000680704 0.000307717)
(0.142842 -0.000726931 0.000306801)
(0.142833 -0.000722483 0.000266602)
(0.142895 -0.000689828 0.000297913)
(0.142756 -0.000675329 0.000316896)
(0.14272 -0.000701962 0.000375382)
(0.142591 -0.000706185 0.00040058)
(0.14256 -0.000713854 0.000447875)
(0.142403 -0.000728741 0.000444238)
(0.142426 -0.000714991 0.000466254)
(0.142333 -0.000692429 0.000446827)
(0.142385 -0.000685242 0.000462834)
(0.142312 -0.000681338 0.00044659)
(0.142344 -0.000647153 0.000460858)
(0.142253 -0.000653526 0.000418001)
(0.142275 -0.000661694 0.000431408)
(0.142233 -0.00064512 0.00040882)
(0.142315 -0.000633195 0.000437524)
(0.142305 -0.000646723 0.000406398)
(0.14247 -0.000651441 0.000410258)
(0.142522 -0.000664943 0.0003591)
(0.142661 -0.000658364 0.000359667)
(0.142687 -0.000669692 0.000336703)
(0.1428 -0.000664614 0.000355042)
(0.142851 -0.000656886 0.000303967)
(0.143094 -0.000631538 0.000271238)
(0.143152 -0.000599033 0.000165989)
(0.143335 -0.000598364 0.000124776)
(0.143249 -0.000598581 2.83139e-05)
(0.143324 -0.000570328 6.8297e-06)
(0.143205 -0.000561702 -6.70242e-05)
(0.143271 -0.000537361 -7.39027e-05)
(0.143239 -0.000550283 -9.34674e-05)
(0.143414 -0.000534217 -3.66061e-05)
(0.143385 -0.000537736 -1.54139e-05)
(0.143488 -0.000537915 4.23408e-05)
(0.143348 -0.000554775 4.69205e-05)
(0.143399 -0.000542973 0.000101321)
(0.143301 -0.000593972 0.000106217)
(0.143464 -0.000588122 0.000177043)
(0.143392 -0.000624109 0.000190694)
(0.143527 -0.000675748 0.000214918)
(0.143455 -0.000687376 0.000202319)
(0.14352 -0.000614491 0.000236838)
(0.143353 -0.000566593 0.000198757)
(0.143307 -0.000542812 0.000212373)
(0.143108 -0.000538117 0.000212613)
(0.142992 -0.00052733 0.000271942)
(0.14317 -0.000782866 -3.45198e-05)
(0.14318 -0.000833924 2.28274e-05)
(0.143075 -0.000891226 1.53762e-05)
(0.1431 -0.000936521 4.02205e-05)
(0.143065 -0.000925069 4.70694e-05)
(0.143165 -0.000922285 9.95061e-05)
(0.143183 -0.000910062 0.000128309)
(0.143289 -0.000921273 0.000197298)
(0.143301 -0.000900787 0.000264026)
(0.143353 -0.000920446 0.000352312)
(0.143379 -0.000911507 0.00039457)
(0.143566 -0.00089817 0.000449345)
(0.143623 -0.000886225 0.000452555)
(0.143782 -0.000872716 0.000486078)
(0.143808 -0.000827739 0.00048562)
(0.143917 -0.000788384 0.000513783)
(0.143881 -0.000800456 0.000494597)
(0.143903 -0.000779553 0.000502228)
(0.143872 -0.000766427 0.000508734)
(0.143868 -0.000794867 0.000550913)
(0.143773 -0.000833522 0.000528476)
(0.143744 -0.000871736 0.000540755)
(0.143685 -0.000879385 0.000498934)
(0.143625 -0.000876103 0.000492672)
(0.143542 -0.00089106 0.000436827)
(0.143569 -0.000906775 0.000415863)
(0.14357 -0.000917296 0.000332237)
(0.143715 -0.000930954 0.00030075)
(0.143708 -0.000898258 0.00021981)
(0.143763 -0.00090008 0.000197361)
(0.143606 -0.000874372 0.000116311)
(0.14365 -0.000866064 7.87704e-05)
(0.143514 -0.000854325 2.23646e-05)
(0.1436 -0.000869455 1.42849e-05)
(0.143475 -0.000871685 1.08447e-05)
(0.143627 -0.000884191 4.05851e-05)
(0.143495 -0.000814596 2.0264e-05)
(0.143595 -0.000745296 1.61467e-05)
(0.143461 -0.000696668 4.75522e-06)
(0.143562 -0.00069688 1.83099e-05)
(0.143398 -0.0007205 3.5523e-06)
(0.143557 -0.000733834 2.46455e-05)
(0.14332 -0.000732087 2.0843e-05)
(0.143416 -0.00079399 5.23699e-06)
(0.143189 -0.000766735 -3.24092e-05)
(0.143355 -0.000736693 -5.19279e-05)
(0.14315 -0.000701928 -9.72483e-05)
(0.143358 -0.000739845 -0.000107905)
(0.143197 -0.000707124 -0.000108959)
(0.143372 -0.000773106 -7.24156e-05)
(0.1441 -0.000585757 -0.00014195)
(0.144305 -0.000631641 -8.81803e-05)