/*--------------------------------*- C++ -*----------------------------------*\
| =========                 |                                                 |
| \\      /  F ield         | OpenFOAM: The Open Source CFD Toolbox           |
|  \\    /   O peration     | Version:  2.3.0                                 |
|   \\  /    A nd           | Web:      www.OpenFOAM.org                      |
|    \\/     M anipulation  |                                                 |
\*---------------------------------------------------------------------------*/
FoamFile
{
    version     2.0;
    format      ascii;
    class       volScalarField;
    location    "500";
    object      nuSgs;
}
// * * * * * * * * * * * * * * * * * * * * * * * * * * * * * * * * * * * * * //

dimensions      [0 2 -1 0 0 0 0];

internalField   nonuniform List<scalar> 
90000
(
-6.09076e-09
-1.53072e-07
-2.29716e-07
-2.2264e-07
-2.07082e-07
-2.13742e-07
-1.03453e-07
-5.04571e-08
-5.71263e-08
-8.51055e-08
-3.57402e-07
-6.05326e-07
-4.15451e-07
2.88426e-07
8.75407e-07
9.24067e-07
9.86837e-07
1.10363e-06
1.04392e-06
7.96993e-07
4.2181e-07
1.07034e-07
-2.77017e-08
-1.31866e-07
-2.89907e-07
-3.85343e-07
-2.79568e-07
-5.71529e-08
8.18283e-08
2.96935e-08
-5.29042e-08
-2.7925e-08
9.38689e-08
1.43692e-07
1.08455e-07
1.10343e-07
7.06152e-08
-5.54812e-08
-1.40823e-07
-1.5143e-07
-1.44418e-07
-1.43066e-07
-1.34414e-07
-1.33082e-07
-1.29498e-07
-3.49789e-08
1.41239e-07
1.85789e-07
1.7726e-07
1.31443e-07
-2.62575e-08
-2.51672e-07
-3.68833e-07
-3.23279e-07
-2.47546e-07
-3.40561e-07
-2.79747e-07
-1.29575e-07
-1.77449e-07
-9.022e-08
-2.55736e-07
-7.58248e-07
-5.97529e-07
2.72981e-07
1.07676e-06
1.24676e-06
1.49099e-06
1.90905e-06
1.97157e-06
1.52432e-06
8.48331e-07
2.38887e-07
-4.08748e-08
-1.87556e-07
-3.61736e-07
-4.87756e-07
-3.92807e-07
-7.31656e-08
1.22291e-07
2.42093e-08
-1.16405e-07
-1.21291e-07
7.93492e-08
2.44818e-07
2.45222e-07
2.26371e-07
1.32924e-07
-5.46483e-08
-2.05693e-07
-2.72955e-07
-2.84186e-07
-2.47898e-07
-1.45524e-07
-1.05698e-07
-1.56708e-07
-2.18548e-08
2.14812e-07
2.48604e-07
2.31324e-07
1.77871e-07
3.42441e-08
-2.62538e-07
-4.21979e-07
-4.18888e-07
-1.91816e-07
-2.11353e-07
-4.45708e-07
-2.33886e-07
-3.00208e-07
-2.42663e-07
1.64043e-08
-6.42169e-07
-8.35314e-07
3.17469e-07
1.28738e-06
1.17449e-06
1.07072e-06
1.87497e-06
2.8952e-06
2.836e-06
1.82935e-06
7.66665e-07
6.40459e-08
-2.72313e-07
-4.60137e-07
-4.70431e-07
-3.51119e-07
-6.85004e-09
2.2882e-07
5.62845e-08
-1.82783e-07
-2.90963e-07
-1.09424e-07
2.49805e-07
4.54766e-07
4.80913e-07
3.04115e-07
4.3074e-08
-1.59162e-07
-3.2327e-07
-4.08315e-07
-3.32035e-07
-8.08585e-08
3.78194e-08
-9.76799e-08
9.516e-08
3.88978e-07
3.17553e-07
2.30169e-07
2.44129e-07
4.23835e-07
1.07466e-07
-3.81773e-08
-2.79656e-07
-3.44517e-07
-9.6708e-09
-3.22666e-07
-2.01449e-07
-2.17326e-07
-1.42394e-07
-2.28172e-07
-4.32913e-07
-7.64794e-07
7.28314e-07
1.62346e-06
1.21168e-06
3.2999e-07
4.11496e-07
1.69567e-06
3.55776e-06
3.28263e-06
1.78142e-06
5.67944e-07
-2.51036e-07
-8.17983e-07
-7.56887e-07
-3.1298e-07
2.8654e-07
5.91028e-07
2.99596e-07
-8.61653e-08
-3.36551e-07
-3.51105e-07
4.60887e-09
5.66468e-07
9.90607e-07
8.83313e-07
4.82301e-07
1.38402e-07
-2.29528e-07
-3.60261e-07
-2.93633e-07
1.25266e-07
2.96449e-07
7.16381e-08
3.20684e-07
9.57602e-07
8.96719e-07
5.03121e-07
5.08295e-07
1.43e-06
1.15597e-06
9.54915e-07
5.74308e-07
-3.69632e-07
-4.22685e-07
-1.18353e-07
3.55024e-07
3.10402e-07
6.20734e-07
-7.04613e-07
-1.11799e-06
-1.06911e-06
3.2404e-07
1.34387e-06
1.25998e-06
-4.99499e-07
-3.0376e-06
1.03729e-07
1.76024e-06
3.94366e-06
3.08681e-06
1.50977e-06
1.46704e-07
-9.21066e-07
-1.50328e-06
-7.69202e-07
6.43232e-07
1.41264e-06
1.05774e-06
3.73464e-07
-1.05606e-07
-3.43313e-07
-2.48078e-07
3.74285e-07
1.48689e-06
1.90357e-06
1.54605e-06
1.11679e-06
-8.14778e-08
-4.23733e-07
-4.37261e-08
3.35382e-07
5.62253e-07
2.74336e-07
7.09701e-07
1.89533e-06
2.76464e-06
2.18287e-06
1.65216e-06
4.03876e-06
3.37143e-06
3.07571e-06
1.67145e-06
-2.64406e-07
-8.67012e-07
-1.44295e-07
1.52008e-06
9.8768e-07
2.05623e-06
-4.12804e-07
-1.88124e-06
-1.30788e-06
-2.97924e-06
-1.71912e-06
1.00748e-06
-3.26296e-06
5.60231e-06
-1.34407e-05
-1.43712e-06
2.23323e-06
3.88051e-06
2.7599e-06
1.18322e-06
-3.61476e-07
-1.42903e-06
-1.42962e-06
7.83247e-07
2.53525e-06
2.26651e-06
1.14443e-06
4.17066e-07
1.93078e-07
-3.66586e-07
-6.37606e-08
1.31872e-06
2.68071e-06
2.72028e-06
2.48663e-06
5.67513e-07
-1.34844e-06
-6.83309e-08
8.60071e-07
1.41796e-06
5.80047e-07
1.12235e-06
2.68259e-06
5.09741e-06
7.45985e-06
6.80573e-06
1.12174e-05
7.21616e-06
6.85273e-06
2.17165e-06
-9.88595e-07
-1.24284e-06
6.76094e-07
2.79568e-06
2.30085e-06
1.29773e-06
9.54263e-07
-2.56775e-06
8.17599e-07
-2.99663e-06
-6.08075e-06
-6.9684e-07
-1.07687e-05
1.01109e-05
9.74789e-07
-4.195e-06
-5.54853e-07
2.85646e-06
4.07833e-06
2.65731e-06
1.22708e-06
-7.40976e-07
-1.05606e-06
4.35588e-07
3.31471e-06
3.73772e-06
2.04119e-06
6.69851e-07
5.78465e-07
1.00862e-06
-5.65855e-06
2.64436e-07
2.50063e-06
3.36515e-06
2.36581e-06
4.60367e-07
-1.79114e-06
-1.88655e-06
2.07956e-08
2.25916e-06
1.88159e-06
2.25142e-06
4.38072e-06
6.94885e-06
1.30056e-05
1.77426e-05
1.38491e-05
8.87012e-06
7.00485e-06
3.83105e-06
-1.33609e-06
-1.59267e-06
2.38783e-06
2.21875e-06
3.59371e-06
4.14345e-06
1.08952e-06
-2.16773e-06
-7.63366e-07
-3.38945e-06
-2.10654e-06
3.80171e-08
-1.73321e-05
-1.6811e-06
1.04335e-05
-5.35689e-07
-3.90852e-06
4.22595e-07
4.04352e-06
4.72155e-06
2.7663e-06
1.66704e-06
1.91777e-06
1.73236e-06
2.29163e-06
4.09127e-06
3.09122e-06
2.07831e-06
2.32413e-06
3.08335e-06
-3.2851e-06
-7.29543e-06
1.4354e-06
3.48793e-06
1.4325e-06
-1.64477e-07
-8.2859e-07
-4.45383e-06
-3.2001e-06
1.11205e-06
2.79125e-06
3.81896e-06
9.44466e-06
1.12988e-05
1.74912e-05
2.2113e-05
9.22976e-06
7.77559e-06
9.18207e-06
7.92261e-06
1.52602e-06
-7.44716e-07
3.41014e-06
3.49084e-06
4.9252e-06
6.82072e-06
3.40464e-06
-5.96797e-06
-4.19063e-06
-1.50149e-05
-4.96811e-07
1.35848e-06
-8.38214e-06
-2e-05
4.93862e-06
-2.81324e-06
8.45801e-07
-2.10297e-06
2.408e-06
5.80022e-06
5.76479e-06
3.34812e-06
2.33401e-06
4.99717e-06
4.0767e-06
7.64552e-07
2.89033e-06
4.73541e-06
7.53653e-06
2.3727e-06
5.97106e-07
-3.39896e-06
1.05005e-07
3.78008e-06
9.28705e-07
3.21813e-07
2.67333e-06
-6.33381e-06
-1.02205e-05
-2.9188e-06
2.98498e-06
5.69404e-06
8.19398e-06
9.04213e-06
8.8834e-06
1.0485e-05
1.61419e-06
4.55392e-06
8.55994e-06
9.91274e-06
5.11393e-06
2.24941e-06
6.31895e-06
6.99195e-06
7.17406e-06
6.39988e-06
2.15482e-06
-6.9617e-06
-7.77831e-06
-1.20467e-05
-2e-05
3.98978e-06
-2.46845e-06
-1.62197e-05
1.36491e-08
-1.18642e-06
3.46963e-07
3.58228e-07
6.86941e-07
4.89166e-06
8.04334e-06
1.50631e-05
4.44234e-06
1.85685e-06
2.90707e-06
-4.4529e-06
7.10878e-07
6.4847e-06
8.83274e-06
1.38335e-06
1.46511e-06
1.64495e-06
1.35758e-06
4.10093e-06
5.82147e-07
8.51798e-07
4.34989e-06
-1.28237e-05
-2e-05
-1.51673e-05
-3.60523e-06
-5.94601e-06
-4.80867e-06
-1.23413e-06
-8.73012e-07
-4.02618e-07
-3.1938e-06
8.84179e-07
4.66151e-06
5.69664e-06
4.22832e-06
4.67963e-06
9.89896e-06
1.1504e-05
8.03203e-06
6.33124e-06
1.91973e-06
-4.67753e-06
-5.46364e-06
-5.8278e-06
-2e-05
5.54835e-06
-8.97971e-07
-2.96758e-06
3.39538e-07
1.25771e-07
-5.61827e-06
-3.08966e-06
-3.25668e-06
2.62585e-06
9.61406e-06
2.4918e-05
1.55766e-05
-4.29625e-06
6.69385e-06
2.43228e-06
8.36006e-07
4.67506e-06
5.27996e-06
1.16234e-06
4.08432e-06
7.2676e-06
6.58764e-06
4.96189e-06
-1.56945e-07
-4.07842e-07
1.37156e-06
-4.15445e-06
-2e-05
-2e-05
-1.37059e-05
-1.50607e-05
-9.96892e-06
-3.83432e-06
-6.27176e-06
-6.95754e-06
-2.60142e-06
-1.10239e-06
1.40344e-06
1.18807e-06
8.62742e-07
3.57135e-06
9.26932e-06
1.26144e-05
1.03405e-05
6.48754e-06
2.55062e-06
-2.0474e-06
-2.7577e-06
3.33229e-07
-1.41318e-05
2.66884e-06
3.97867e-06
2.27428e-06
7.0005e-06
1.02835e-06
-3.73944e-06
-7.45768e-06
-7.52832e-06
7.53345e-07
1.29738e-05
2.52726e-05
1.77973e-05
-6.72673e-06
8.45162e-06
1.24755e-05
6.32453e-06
4.4647e-06
2.25689e-06
1.48909e-06
6.70742e-06
1.15967e-05
8.69717e-06
5.45845e-06
-7.71118e-07
-1.60542e-06
7.7852e-07
2.63548e-06
-5.37531e-06
-2e-05
-1.68202e-05
-1.21211e-05
-5.2943e-06
9.14985e-07
3.29284e-06
-3.13742e-06
-5.81449e-06
-3.12055e-06
-5.16179e-07
3.12592e-07
-1.28728e-06
1.40694e-06
4.48703e-06
8.55826e-06
9.99075e-06
7.9145e-06
3.83833e-06
8.99973e-07
1.98378e-06
3.20091e-06
-4.59933e-06
-4.97186e-07
5.13497e-06
1.91761e-06
1.12084e-05
1.69468e-07
-3.28511e-06
-5.66272e-06
-6.61187e-06
2.34668e-06
1.20647e-05
1.96056e-05
1.18565e-05
-3.97104e-06
3.29744e-06
1.86467e-05
1.00987e-05
8.79083e-06
6.68167e-06
1.97212e-06
9.48959e-06
1.71763e-05
1.23185e-05
4.45546e-06
-3.60824e-06
-3.19337e-06
9.69499e-08
6.02057e-06
1.88219e-05
1.16162e-05
-3.49376e-06
1.95573e-06
8.46706e-06
5.30166e-06
5.05379e-06
2.60426e-06
-3.21032e-06
-7.83696e-06
-8.6647e-06
1.87267e-06
1.15238e-06
3.02912e-07
1.25834e-06
3.34589e-06
7.64601e-06
9.04807e-06
5.67998e-06
2.80864e-06
4.22781e-06
4.0535e-06
1.85101e-06
-6.83983e-06
3.86175e-06
1.19862e-06
8.36113e-06
4.7294e-07
-2.66696e-06
-4.21973e-06
-6.6913e-07
7.71439e-06
2.72292e-06
1.00618e-05
6.61511e-06
-2.88562e-06
-1.0684e-06
2.12495e-05
1.03871e-05
7.4485e-06
3.44615e-06
1.76661e-07
1.04076e-05
2.16194e-05
1.76582e-05
7.12615e-06
-4.65498e-06
-5.71319e-06
1.65772e-06
4.14636e-06
2.73166e-05
3.26247e-05
1.2628e-05
1.10364e-05
1.14569e-05
8.56889e-06
6.92733e-06
4.34591e-06
4.59709e-06
1.22268e-06
-3.14424e-06
5.82066e-06
2.35327e-06
1.57626e-06
-3.81528e-06
3.01638e-07
1.06197e-05
1.27241e-05
8.88691e-06
6.14081e-06
6.22444e-06
4.01062e-06
4.21202e-06
-4.06796e-06
3.49346e-06
3.18853e-06
5.72109e-06
1.96254e-06
-2.90947e-06
1.2238e-06
3.25689e-06
5.82688e-06
-6.70217e-06
-6.95715e-07
1.7084e-06
-2.396e-07
-4.17777e-07
2.37881e-05
1.10325e-05
8.58742e-06
1.46078e-06
-2.77867e-06
5.71514e-06
1.77236e-05
2.27424e-05
1.23042e-05
1.31151e-06
-6.60941e-06
-4.78196e-06
-8.07746e-07
2.42037e-05
3.19156e-05
1.34619e-05
5.2557e-06
8.08181e-06
1.13141e-05
1.09318e-05
8.0052e-06
7.002e-06
4.2331e-06
1.39055e-06
8.51515e-06
6.78634e-06
2.18751e-06
-4.74331e-06
-4.52872e-06
7.08375e-06
1.24633e-05
1.08648e-05
6.02262e-06
3.8778e-06
2.65022e-06
3.21937e-06
-5.77729e-07
2.81253e-06
1.82417e-06
9.57714e-07
2.32201e-06
1.1847e-06
2.8734e-06
8.92922e-07
-1.46551e-07
-9.04574e-06
8.99443e-07
3.22194e-06
8.99205e-06
4.92952e-06
1.84414e-05
1.21992e-05
8.94722e-06
3.44633e-06
2.1923e-08
9.66837e-06
1.50789e-05
1.86775e-05
1.11806e-05
3.80794e-06
-7.76056e-06
-5.98828e-06
-4.35024e-06
1.43418e-05
2.33079e-05
9.63139e-06
4.32185e-07
3.55139e-06
8.06048e-06
9.6434e-06
8.85812e-06
4.33224e-06
3.79237e-06
3.47807e-06
8.14422e-06
8.90483e-06
1.06239e-06
-3.96644e-06
-2.64984e-06
7.67922e-06
1.2496e-05
8.79717e-06
4.69954e-06
2.28983e-06
2.85633e-07
3.90015e-07
-1.86088e-07
1.23965e-06
-3.55975e-07
9.83374e-07
6.25265e-06
9.12772e-06
9.609e-06
1.08114e-05
9.10069e-06
1.08195e-05
7.16702e-06
7.35717e-06
1.11764e-05
1.09564e-05
6.30347e-06
5.98957e-06
7.46677e-06
4.96368e-06
-1.20258e-05
-1.21602e-05
-8.05171e-06
-9.58454e-06
-5.16121e-06
-4.51511e-07
4.40455e-06
1.27686e-05
1.02352e-05
4.77334e-06
7.94328e-06
6.40062e-06
-1.85895e-06
-3.50827e-07
3.66998e-06
-2.98682e-06
5.6227e-09
1.92867e-06
5.3283e-06
6.66627e-06
1.04452e-05
1.34282e-05
4.24354e-06
-4.29048e-06
-1.45633e-06
1.01469e-05
1.78527e-05
1.30798e-05
6.46255e-06
3.6176e-06
-5.71609e-07
-3.39863e-07
-2.1419e-06
-4.48523e-06
-5.59039e-06
6.92618e-06
8.91362e-06
1.37951e-05
1.10531e-05
9.26931e-06
8.07779e-06
6.59938e-06
6.79739e-06
3.51151e-06
3.04031e-06
4.01652e-06
-3.55593e-06
3.9712e-06
5.10294e-06
-3.5427e-06
-2e-05
-2e-05
-1.40476e-05
-1.21301e-05
-8.51554e-06
-7.12158e-06
-5.2414e-07
7.97595e-06
1.07257e-05
6.1253e-06
1.61568e-06
8.1475e-07
-3.18267e-06
9.9766e-07
4.05472e-06
4.12455e-07
-5.23822e-07
-4.00325e-06
6.7103e-06
9.28428e-06
1.13032e-05
1.41442e-05
7.18948e-06
-5.32461e-06
-1.91101e-06
7.39053e-06
1.79298e-05
1.71254e-05
1.28505e-05
9.83418e-06
1.2453e-06
-1.77849e-06
-5.70978e-07
-2.45672e-06
-4.42602e-06
7.13069e-06
9.58825e-06
1.34061e-05
9.63683e-06
8.13014e-06
1.28452e-05
6.66289e-06
2.08485e-06
-5.91174e-07
1.4668e-05
1.87689e-05
8.05772e-06
-5.22401e-06
-9.22907e-06
-1.04995e-05
-2e-05
-2e-05
1.0744e-06
-2.67244e-07
-9.3659e-06
-1.1971e-05
-4.99944e-06
1.74894e-06
5.91834e-06
7.39511e-06
-2.88238e-06
-4.08849e-06
-4.71372e-06
-4.17097e-07
1.93423e-06
1.59302e-06
-2.19207e-06
-1.86302e-05
-3.5864e-06
4.84323e-06
5.79391e-06
6.02665e-06
3.1018e-06
-3.79664e-06
-2.9347e-06
3.823e-06
1.27162e-05
1.27536e-05
1.23845e-05
1.1808e-05
3.98899e-06
-5.75822e-07
2.31187e-06
2.6879e-06
9.70219e-07
1.44763e-06
7.47042e-06
9.50462e-06
7.24534e-06
6.1607e-06
9.81238e-06
4.06976e-06
1.00638e-06
-9.20681e-06
1.86174e-06
5.41839e-06
6.73444e-06
1.49638e-06
-5.02487e-06
6.05665e-06
1.37467e-06
4.07824e-06
1.30132e-05
7.72465e-06
-2.09551e-06
2.14109e-06
7.92321e-06
3.39417e-06
1.31099e-06
2.76473e-06
-4.80554e-07
-1.74999e-07
-5.48649e-06
-2.16336e-07
6.51361e-06
5.41331e-06
-5.49416e-06
-1.30089e-05
-1.10303e-05
-1.17028e-06
1.73466e-07
1.59425e-06
2.50557e-06
-6.92844e-07
3.1469e-06
3.7119e-06
1.57119e-05
1.62889e-05
1.11469e-05
6.19942e-06
1.71337e-06
3.82795e-06
6.19795e-06
7.24287e-06
1.66023e-06
-8.45637e-08
2.04814e-06
5.45001e-06
5.96768e-06
3.45317e-06
4.83778e-06
3.984e-06
-1.27293e-06
9.45183e-07
4.01133e-06
6.76991e-06
5.0688e-07
-3.05986e-06
8.87802e-07
4.69119e-06
5.72647e-06
8.14598e-06
7.99777e-06
1.02608e-06
-2.2526e-06
1.39011e-06
7.28904e-06
8.40118e-06
1.1716e-06
-5.29345e-07
3.10662e-06
5.47854e-06
8.15624e-07
-2.10227e-06
1.46511e-06
2.12896e-06
-4.74253e-06
-5.66873e-06
-2.35158e-06
1.13646e-06
3.16822e-07
4.98069e-07
4.64232e-06
-9.2039e-06
6.4568e-07
4.42161e-06
7.84245e-06
3.12137e-05
1.8374e-05
2.22553e-06
1.24153e-06
8.30186e-06
5.84727e-06
2.48334e-06
1.49504e-06
8.26112e-07
2.70455e-06
5.23357e-06
6.92715e-06
4.98875e-06
2.6076e-06
-1.29801e-07
-1.10166e-06
2.68559e-06
3.28468e-06
3.20765e-06
1.25415e-06
6.39742e-07
-2.10412e-06
2.19494e-06
8.40624e-07
2.38128e-06
2.92958e-06
2.23116e-07
-2.53388e-06
-3.81796e-06
5.366e-07
4.72564e-06
3.92041e-06
5.88961e-06
1.30341e-05
1.38859e-05
9.05472e-06
5.57096e-06
1.45297e-06
-4.99652e-06
-8.96449e-06
-2.81964e-06
6.56367e-07
4.35621e-06
6.70155e-06
8.39621e-06
1.39295e-05
3.91662e-07
-7.718e-06
6.3231e-07
-6.94527e-06
5.82905e-06
2.35032e-05
1.38527e-05
8.02629e-06
4.85296e-06
9.15853e-07
-1.64321e-06
5.77212e-07
2.62334e-07
1.59319e-06
4.88545e-06
7.16472e-06
6.68518e-06
4.22552e-06
2.77467e-06
1.87593e-06
2.92057e-06
2.45574e-06
2.57349e-06
5.12149e-06
5.57192e-06
2.00198e-06
7.61182e-06
8.72804e-06
7.7731e-06
6.35552e-06
4.18563e-06
2.3149e-06
2.60775e-06
6.8523e-06
1.79407e-05
2.10296e-05
1.96349e-05
1.58426e-05
1.40265e-05
1.18309e-05
1.0237e-05
5.74497e-06
-2.66865e-06
-8.88778e-06
-4.34795e-07
2.67408e-06
2.2032e-06
4.16187e-06
6.5334e-06
1.05926e-05
5.70427e-06
-1.3172e-06
4.79517e-06
-8.31137e-06
1.90889e-06
3.12543e-05
2.72794e-05
1.17699e-05
1.2776e-06
6.14867e-07
1.87373e-06
1.67724e-06
1.23974e-06
-1.81739e-06
1.02854e-07
3.88319e-06
6.06862e-06
4.99065e-06
1.73902e-06
4.22979e-06
4.71838e-06
3.594e-06
2.77403e-06
3.52158e-06
5.86454e-06
4.86581e-06
7.52066e-06
8.57748e-06
6.64778e-06
3.97226e-06
5.62287e-06
5.62338e-06
4.67283e-06
4.13526e-06
8.73852e-06
1.73488e-05
2.06376e-05
1.35963e-05
6.8744e-06
4.89408e-06
4.77374e-06
6.12454e-06
4.72052e-06
4.4684e-07
7.97444e-06
2.46558e-06
8.62931e-07
1.73663e-06
3.55389e-06
9.2322e-06
1.12061e-05
4.83897e-06
8.70013e-06
-1.31494e-06
-5.17916e-06
2.37371e-05
2.72803e-05
1.3331e-05
7.9201e-06
7.58408e-06
6.47896e-06
4.51987e-06
1.86875e-06
-1.11456e-06
-3.1504e-06
-7.92263e-07
1.87034e-06
2.73893e-06
6.0526e-07
2.69883e-06
5.61716e-06
6.21419e-06
5.50339e-06
5.63276e-06
5.6821e-06
2.12309e-06
2.76636e-06
3.64229e-06
2.34978e-06
-8.1778e-07
2.67574e-06
4.57343e-06
3.44669e-06
2.61099e-06
2.86026e-06
6.54093e-06
9.744e-06
7.99373e-06
4.0163e-06
1.63753e-06
1.6446e-06
2.53515e-06
4.54993e-06
2.01146e-06
2.94489e-06
-5.92409e-08
-4.01432e-06
-2.24547e-07
1.63711e-06
5.80756e-06
1.11584e-05
7.59562e-06
3.30492e-06
1.63316e-06
-3.36929e-06
4.22747e-06
7.75542e-06
8.06572e-06
1.13222e-05
1.27243e-05
1.10741e-05
8.55258e-06
5.00037e-06
2.71752e-06
1.31777e-06
1.95195e-07
5.9653e-07
8.78692e-07
4.70338e-08
1.23219e-06
5.18325e-06
8.64442e-06
1.02206e-05
1.07033e-05
9.53862e-06
5.36581e-06
-4.42193e-07
-2.7882e-06
-3.28236e-06
-1.88316e-06
1.07047e-06
2.38316e-06
2.17628e-06
2.41828e-06
2.47129e-06
3.3206e-06
3.92263e-06
3.58396e-06
2.33437e-06
1.16437e-06
4.36061e-07
4.751e-06
7.39956e-07
5.68145e-07
1.65389e-06
-9.20768e-07
-2.40329e-06
-1.93058e-06
9.0962e-07
3.25837e-06
7.43177e-06
8.88055e-06
4.61953e-06
2.54764e-06
1.63469e-06
7.89093e-07
9.23678e-07
2.89435e-06
5.69011e-06
7.19157e-06
7.1228e-06
6.23065e-06
4.35772e-06
2.24322e-06
1.03831e-06
4.64851e-07
5.52193e-07
9.28163e-07
6.59189e-07
6.54708e-07
2.18578e-06
5.19457e-06
8.25413e-06
1.04529e-05
1.07772e-05
8.41616e-06
4.62405e-06
1.69968e-06
5.77628e-07
5.89882e-07
9.03129e-07
6.41243e-07
9.03293e-07
1.62692e-06
2.13585e-06
2.4182e-06
2.3248e-06
2.12019e-06
1.89821e-06
5.33333e-07
-2.59856e-07
4.25438e-07
2.20062e-06
1.81375e-06
2.23638e-06
1.01803e-06
-2.5732e-07
5.54653e-08
1.09646e-06
2.1951e-06
3.82146e-06
4.80411e-06
4.00962e-06
3.45399e-06
3.22662e-06
1.98705e-06
1.5506e-07
6.58239e-07
2.08592e-06
2.93118e-06
2.93443e-06
2.8911e-06
3.55796e-06
2.65349e-06
8.09661e-07
8.72655e-08
1.76856e-07
5.62955e-07
1.11672e-06
1.44706e-06
1.60562e-06
2.67193e-06
4.59377e-06
6.49074e-06
7.58102e-06
7.01211e-06
5.17208e-06
3.33178e-06
2.11102e-06
1.23762e-06
8.08414e-07
-4.13995e-07
-1.3923e-06
2.2144e-07
1.47502e-06
1.4216e-06
1.2498e-06
1.47314e-06
1.71314e-06
5.67012e-07
1.15471e-07
1.1795e-06
2.52422e-06
2.68094e-06
3.5849e-06
4.0362e-06
4.23649e-06
4.26397e-06
4.17821e-06
3.79121e-06
3.13117e-06
2.51258e-06
2.06337e-06
1.68133e-06
1.55119e-06
1.0598e-06
9.78783e-08
3.3256e-07
1.25201e-06
1.12292e-06
6.80663e-07
5.72067e-07
1.57921e-06
3.28641e-06
3.74384e-06
2.67332e-06
1.65964e-06
9.84279e-07
6.6941e-07
8.56623e-07
1.88024e-06
2.37603e-06
3.10087e-06
3.97705e-06
4.65345e-06
4.70624e-06
4.3449e-06
3.95721e-06
3.20458e-06
1.94755e-06
8.37641e-07
1.99667e-07
1.13976e-08
4.31155e-07
5.0152e-07
4.69262e-07
9.9962e-07
1.61909e-06
2.14191e-06
2.13708e-06
2.0674e-06
2.3231e-06
2.76676e-06
3.22585e-06
8.82232e-06
9.74397e-06
9.28222e-06
7.82597e-06
6.56462e-06
5.98862e-06
5.44795e-06
4.70343e-06
3.86467e-06
2.64589e-06
1.26047e-06
9.13594e-07
1.37737e-06
2.62647e-06
3.58203e-06
3.47305e-06
2.78361e-06
2.11312e-06
1.49493e-06
1.06162e-06
1.07133e-06
6.92087e-07
-7.49085e-08
-3.19576e-07
-1.22648e-07
3.19609e-07
1.19783e-06
1.99152e-06
2.19627e-06
2.54789e-06
2.78122e-06
2.64467e-06
2.57321e-06
2.82829e-06
2.54605e-06
1.79115e-06
9.75546e-07
3.46364e-07
6.8969e-07
1.37912e-06
1.9426e-06
1.19652e-06
1.92571e-06
3.25956e-06
4.2923e-06
4.30915e-06
2.68074e-06
2.51447e-06
4.17824e-06
6.46171e-06
1.34032e-07
1.05534e-07
2.29042e-07
4.91831e-07
5.22024e-07
2.93491e-07
1.09934e-07
1.0112e-08
-1.32644e-07
-2.54395e-07
-1.62629e-07
2.20946e-07
5.38188e-07
4.15262e-07
2.68326e-07
1.28663e-07
-5.44689e-08
-2.92918e-07
-4.87295e-07
-4.89074e-07
-3.5901e-07
-1.63504e-07
2.61003e-08
1.59135e-07
2.54904e-07
3.24085e-07
2.86914e-07
2.10832e-07
1.14577e-07
-4.78105e-08
-1.68735e-07
-1.56255e-07
-1.06566e-07
-1.32948e-07
-1.87383e-07
-2.43206e-07
-3.05339e-07
-3.30849e-07
-2.43795e-07
-1.08157e-07
-6.67011e-08
6.2602e-08
3.76431e-07
6.33476e-07
7.02431e-07
7.09117e-07
6.24868e-07
3.53633e-07
1.95772e-07
1.82122e-07
1.73985e-07
1.37999e-07
3.57724e-07
8.01197e-07
9.36705e-07
5.81278e-07
2.05001e-07
-1.64399e-08
-2.42287e-07
-3.86497e-07
-2.52762e-07
2.2229e-07
7.0445e-07
5.4783e-07
4.22707e-07
3.08501e-07
9.04776e-08
-1.16284e-07
-3.74456e-07
-5.59238e-07
-5.0397e-07
-3.09858e-07
-6.13197e-08
1.89921e-07
4.26933e-07
6.53993e-07
6.10509e-07
3.79991e-07
1.46676e-07
-8.21962e-08
-2.57559e-07
-2.92664e-07
-2.3794e-07
-2.34714e-07
-2.76391e-07
-3.55769e-07
-4.62857e-07
-4.91287e-07
-3.33684e-07
-1.50427e-07
-1.22705e-07
5.23993e-08
5.55355e-07
1.03134e-06
1.22535e-06
1.36175e-06
1.15303e-06
7.03837e-07
5.09162e-07
3.67872e-07
3.64366e-07
1.27163e-07
3.46144e-07
8.22615e-07
1.24652e-06
1.01525e-06
4.61999e-07
2.52724e-08
-4.0431e-07
-6.92952e-07
-4.62631e-07
5.08842e-08
5.26093e-07
4.16753e-07
5.07986e-07
5.85836e-07
3.09386e-07
6.71459e-08
5.94244e-08
-1.34463e-07
-4.29005e-07
-4.03285e-07
-2.54099e-07
1.71924e-09
3.80875e-07
9.62619e-07
1.15511e-06
9.35973e-07
3.37353e-07
-8.45866e-08
-2.60151e-07
-3.73872e-07
-4.38468e-07
-4.28072e-07
-4.35354e-07
-5.32251e-07
-7.23535e-07
-7.67555e-07
-4.68209e-07
-1.87292e-07
-2.21199e-07
-1.2518e-07
3.26328e-07
1.01464e-06
1.53513e-06
2.04638e-06
1.94714e-06
1.2927e-06
1.00753e-06
9.18453e-07
1.36663e-06
3.60647e-07
1.92165e-07
1.71084e-07
5.66736e-07
9.9942e-07
8.12431e-07
3.25151e-07
-2.74031e-07
-8.42589e-07
-7.00939e-07
-2.03677e-07
1.7411e-08
7.0599e-08
4.24982e-07
8.52588e-07
8.98704e-07
4.24648e-07
-3.60439e-08
3.14949e-07
1.64911e-07
-2.06654e-07
-2.70685e-07
-2.25648e-07
-5.35136e-08
9.04595e-07
1.73657e-06
2.04139e-06
1.54437e-06
4.7972e-07
-1.64074e-08
-2.48588e-07
-5.48386e-07
-6.34329e-07
-5.07288e-07
-5.72984e-07
-9.89315e-07
-1.17093e-06
-6.14558e-07
-9.45332e-08
-2.30639e-07
-3.33665e-07
-1.93727e-07
2.86047e-07
9.29814e-07
1.47313e-06
2.00063e-06
1.75713e-06
1.6589e-06
1.98598e-06
3.80547e-06
1.99478e-06
1.12529e-06
-5.12281e-07
-1.34866e-06
-2.83565e-07
4.82437e-07
6.83489e-07
3.0187e-07
-1.32365e-07
-9.88823e-08
1.52594e-07
-1.4762e-07
2.62828e-07
4.89217e-07
1.05053e-06
1.5084e-06
1.42648e-06
2.49107e-07
-2.94216e-07
4.99281e-07
4.37082e-07
5.11149e-08
-4.20088e-07
-3.00685e-07
1.16477e-07
1.60719e-06
3.01883e-06
3.43092e-06
2.93448e-06
1.35252e-06
3.83117e-08
-2.6368e-07
-3.11417e-07
-5.2014e-08
-3.95541e-08
-8.33524e-07
-1.95924e-06
-7.2984e-07
8.96597e-07
4.88372e-07
-1.10574e-06
-2.58064e-06
-2.00275e-06
1.04513e-07
8.16886e-07
7.5176e-07
1.25884e-06
2.14332e-06
3.73655e-06
7.42075e-06
4.97524e-06
3.36658e-06
2.24584e-06
-1.26709e-06
-3.86047e-06
-1.52025e-06
1.27699e-07
7.98741e-07
9.68478e-07
1.76563e-06
2.34681e-06
5.7645e-07
7.07099e-07
9.60181e-07
1.27926e-06
2.03877e-06
2.76042e-06
1.15957e-06
-5.05329e-07
-1.46171e-07
7.23115e-07
7.2182e-07
-7.92574e-09
-8.86249e-07
-2.94738e-06
4.13481e-07
2.93342e-06
5.00571e-06
5.5041e-06
3.98713e-06
1.47957e-07
3.52064e-07
1.12971e-06
2.23472e-06
1.52683e-06
-2.23955e-07
-1.74454e-06
5.7077e-07
7.72579e-06
2.68879e-06
-3.32061e-06
-4.59744e-06
-3.46372e-06
-2.43772e-06
1.1116e-06
-6.77834e-07
1.69621e-07
1.81682e-06
5.69226e-06
1.12346e-05
9.05771e-06
4.57001e-06
3.71963e-06
2.82227e-06
-9.65249e-07
-4.18909e-06
-2.24795e-06
4.66407e-07
1.46826e-06
2.9916e-06
4.15417e-06
2.86158e-06
5.10452e-07
1.19053e-06
1.36029e-06
2.80012e-06
2.95943e-06
3.00035e-06
3.97613e-07
-4.5073e-07
4.71212e-07
1.12251e-06
-1.20453e-07
-1.02575e-06
-4.24164e-06
-3.90807e-06
1.43651e-06
5.54053e-06
7.55302e-06
5.87782e-06
5.76114e-07
1.19009e-06
2.66112e-06
4.04338e-06
4.13711e-06
-2.93019e-08
-2.86376e-07
3.45203e-06
8.88501e-06
2.46779e-06
-5.16376e-06
-5.81293e-06
-1.75155e-06
-3.19979e-06
3.55795e-07
-6.22109e-06
-1.33224e-05
9.24197e-07
5.49349e-06
1.6269e-05
1.16841e-05
3.69211e-06
2.22786e-06
3.43549e-06
2.36274e-06
-2.08524e-07
-2.89148e-06
-7.94217e-07
9.92984e-07
3.23701e-06
5.25905e-06
4.62687e-06
-2.72536e-06
8.98387e-07
1.69739e-06
2.55451e-06
2.50927e-06
2.24936e-06
5.25199e-06
9.88898e-07
-1.33803e-07
1.025e-06
1.01774e-06
-1.27762e-06
-1.17528e-06
-4.43506e-06
2.0679e-07
4.04635e-06
8.57797e-06
7.26367e-06
1.93637e-06
2.81701e-06
4.1994e-06
2.85058e-06
3.4352e-06
1.08872e-06
1.21612e-06
2.85689e-06
6.92848e-06
3.94723e-06
-6.20615e-06
-7.47277e-06
-2.01409e-06
-1.2023e-06
-7.20109e-06
-3.8317e-06
-5.15751e-06
2.52243e-06
2.37232e-05
2.62412e-05
5.58146e-06
-4.55552e-06
-3.45634e-06
8.5229e-07
2.53191e-06
3.35198e-06
1.40098e-06
-8.76698e-07
3.48062e-07
2.79128e-06
6.53181e-06
1.18983e-05
-2.62215e-06
-1.69152e-05
2.39465e-06
1.25334e-06
2.00088e-07
-1.68035e-06
5.87333e-06
6.66091e-06
3.64064e-07
-6.30072e-08
1.79351e-06
1.19903e-06
3.01374e-06
3.65313e-07
-4.28698e-08
3.51217e-06
5.5088e-06
6.78202e-06
3.74625e-06
5.47164e-06
5.81672e-06
1.73602e-06
3.99825e-08
8.07765e-07
1.89501e-06
2.50831e-06
5.22318e-06
5.70413e-06
-5.9032e-06
-2e-05
-7.31612e-06
4.72298e-06
-5.78453e-06
-7.18872e-07
-4.48995e-07
1.53876e-06
1.09681e-05
5.17109e-06
-8.60774e-06
-1.09578e-05
-1.06155e-05
-2.73772e-06
5.59599e-07
5.00384e-06
5.68154e-06
1.83842e-06
1.08908e-06
2.379e-06
7.06052e-06
1.31529e-05
3.59393e-06
-2e-05
1.14758e-07
5.39946e-07
-5.86985e-07
-5.79889e-06
4.69964e-06
7.20487e-06
3.29838e-06
-5.7487e-07
8.84835e-07
2.8636e-06
4.50776e-06
2.01287e-05
1.28424e-06
1.34065e-05
4.82039e-06
3.54102e-06
5.4825e-06
9.05396e-06
8.02479e-06
3.86484e-06
-1.71345e-06
-1.25813e-06
6.53712e-07
1.93747e-06
3.07104e-06
3.59667e-06
-9.5521e-06
-2e-05
-2e-05
-2.14131e-06
6.17885e-07
4.42599e-06
4.00938e-06
9.80452e-07
2.88753e-06
-1.16983e-06
-4.55769e-06
-5.17315e-06
-9.21556e-06
-1.15529e-05
-1.65045e-06
4.31724e-06
8.11588e-06
4.7016e-06
3.73342e-06
4.51017e-06
6.90346e-06
1.11615e-05
1.54865e-05
-7.99181e-06
-9.56447e-06
-1.58292e-06
3.72744e-06
-5.0595e-06
2.63404e-06
2.50792e-06
9.70763e-08
-2.31782e-06
-2.3075e-06
2.99893e-06
9.26894e-06
3.06362e-05
6.77424e-06
8.54216e-06
6.12175e-06
3.53866e-07
7.39632e-06
8.56956e-06
1.81155e-06
2.13788e-06
-2.04928e-07
-3.53644e-06
-6.41217e-07
1.7227e-07
1.1413e-06
-1.43686e-06
-1.63623e-05
-2e-05
-2e-05
-2e-05
-1.24682e-06
6.78533e-06
4.85706e-06
-1.83622e-06
-4.05122e-06
-1.32746e-05
-1.55645e-06
-6.38779e-06
-7.21336e-06
-1.1385e-05
-5.99163e-06
1.33854e-06
5.74908e-06
5.09672e-06
6.28287e-06
1.05988e-05
7.46848e-06
4.99815e-06
9.85123e-06
1.19465e-05
-6.53593e-06
-1.04844e-06
5.18841e-07
2.94658e-06
2.34538e-06
-2.78465e-06
-9.74782e-06
-1.11233e-05
-1.13918e-05
9.48128e-07
1.0216e-05
2.44349e-05
7.51847e-06
5.55639e-06
3.761e-06
-1.8783e-06
7.39936e-06
5.01106e-06
5.01175e-06
4.50964e-06
3.26278e-06
1.42715e-07
-1.01136e-06
-1.75415e-06
1.27339e-06
1.63985e-07
-1.09088e-05
-2e-05
-2e-05
-1.63183e-05
-1.37754e-06
1.39364e-05
1.2443e-05
2.03231e-06
-8.5761e-06
-6.31007e-06
-3.65828e-06
-3.92413e-06
-8.83862e-06
-5.42486e-06
-1.09284e-06
-1.75528e-06
2.47154e-07
2.60528e-06
6.99725e-06
1.50472e-05
8.24807e-06
-8.98404e-07
3.91401e-06
8.60596e-06
-4.5658e-06
-9.50951e-08
-4.29218e-08
1.01602e-05
7.50327e-06
1.70976e-06
-3.88292e-06
-1.34167e-05
-1.47171e-05
5.46497e-07
1.07104e-05
1.35873e-05
3.05711e-06
1.38399e-05
7.12237e-06
4.19992e-07
3.9428e-06
2.17125e-06
4.96238e-06
5.6273e-06
6.08598e-06
4.03708e-06
8.6188e-07
-5.47742e-06
2.3331e-06
4.86297e-06
-5.05312e-07
-1.04206e-05
-7.68191e-06
-5.01348e-06
1.05339e-05
2.3534e-05
1.87472e-05
1.21788e-05
5.00635e-06
-2.53191e-06
-5.74976e-06
-1.10665e-06
-9.47858e-07
-1.69698e-06
2.59539e-06
3.51373e-06
-4.87533e-06
9.52254e-08
6.14384e-06
1.4654e-05
5.49795e-06
-1.81054e-06
2.91222e-06
2.41015e-06
-1.27296e-05
-3.4004e-06
-3.35205e-06
6.80316e-06
6.64861e-06
1.52417e-06
2.26725e-07
-4.62112e-06
-5.97895e-06
4.9034e-06
1.84928e-05
1.29907e-05
7.45406e-07
8.98384e-06
1.61437e-05
6.15571e-06
9.66112e-06
2.26912e-07
1.05877e-06
4.20316e-06
7.69529e-06
7.49689e-06
4.19611e-06
-2.49824e-06
-1.73703e-06
3.58627e-06
4.57782e-06
8.95119e-06
1.72084e-05
1.27698e-05
2.07886e-05
2.32574e-05
1.27949e-05
1.03377e-05
8.63561e-06
5.046e-06
-2.23861e-06
1.78701e-06
1.03664e-05
8.04042e-06
3.71842e-06
9.70689e-07
2.8996e-06
5.53723e-07
9.17634e-06
1.98648e-05
8.70573e-06
6.20606e-07
2.87618e-06
1.4773e-06
-3.1803e-06
-4.68303e-06
-1.3737e-05
-5.6857e-06
3.23705e-06
1.78105e-06
1.4413e-06
1.47947e-06
5.48142e-06
8.82797e-06
1.26882e-05
1.33329e-05
4.35386e-06
6.00847e-06
1.04349e-05
7.2819e-06
1.36409e-05
5.3598e-06
-2.53581e-06
1.57309e-06
7.15671e-06
1.15665e-05
7.61492e-06
-8.7487e-08
-8.14818e-06
-2.62255e-06
4.497e-06
1.46613e-05
2.6363e-05
1.96024e-05
7.93088e-06
3.97125e-06
3.37741e-06
4.50076e-06
7.97774e-06
4.97451e-06
9.07503e-07
2.30008e-06
1.05073e-05
1.1388e-05
4.21627e-06
6.47891e-07
1.42731e-06
8.43041e-07
1.71658e-05
3.19616e-05
1.73044e-05
4.54803e-06
3.34556e-06
5.16449e-06
2.01922e-06
-3.02612e-06
-1.70884e-05
-1.51324e-05
2.45931e-06
5.79512e-06
3.61412e-06
3.50806e-06
1.02648e-05
1.28445e-05
2.6929e-06
7.80558e-06
6.62258e-06
1.01941e-05
9.67593e-06
3.51195e-06
8.01993e-06
5.68449e-06
3.8139e-06
1.1104e-05
4.77159e-06
9.6893e-06
7.54496e-06
1.32196e-06
-8.58979e-06
-5.00346e-06
1.98763e-06
7.03031e-06
1.50827e-05
1.21704e-05
4.14266e-06
9.68546e-07
2.45763e-06
2.67012e-06
5.66819e-06
3.07595e-06
1.46989e-06
2.26833e-06
1.09027e-05
1.43602e-05
7.02975e-06
2.67973e-06
2.10416e-06
2.56889e-06
1.90923e-05
3.15901e-05
2.79121e-05
7.61289e-06
2.31579e-06
1.11984e-06
1.61227e-06
2.89395e-06
4.09883e-06
1.30625e-06
5.08529e-06
8.00275e-06
5.14331e-06
5.65662e-06
7.4681e-06
2.18629e-05
5.71206e-06
6.66608e-06
1.24747e-05
1.82623e-05
-7.46413e-06
9.65288e-06
1.55198e-06
3.45474e-06
1.87705e-05
2.5362e-05
4.39103e-06
1.27471e-06
9.72793e-07
2.66381e-07
-5.48855e-07
4.25475e-06
9.44007e-06
4.80357e-06
2.95726e-06
5.26647e-06
2.3929e-06
3.15026e-06
4.57756e-06
4.92618e-06
1.66621e-06
1.3788e-06
4.93966e-06
7.58542e-06
1.30921e-05
1.46263e-05
6.5483e-06
-3.33111e-07
1.19957e-06
3.82163e-06
1.54034e-05
2.3472e-05
2.17957e-05
1.06017e-05
1.98192e-06
1.72087e-06
2.03248e-06
1.93016e-06
2.54093e-06
5.49718e-06
8.28428e-06
9.8784e-06
7.72773e-06
7.97107e-06
1.00895e-05
1.29043e-05
6.33947e-06
6.30408e-06
1.59925e-05
1.615e-05
-1.34193e-06
4.56381e-06
1.79469e-06
3.38737e-06
1.32855e-05
1.92971e-05
6.5782e-06
1.19958e-06
9.20159e-07
-3.34145e-06
-1.07085e-05
1.56961e-06
1.02477e-05
1.02615e-05
2.98336e-06
1.29683e-06
2.56274e-06
7.30135e-06
1.02877e-05
9.12562e-06
2.55625e-06
9.48482e-07
8.64083e-06
1.39995e-05
1.51574e-05