/*--------------------------------*- C++ -*----------------------------------*\
| =========                 |                                                 |
| \\      /  F ield         | OpenFOAM: The Open Source CFD Toolbox           |
|  \\    /   O peration     | Version:  2.3.0                                 |
|   \\  /    A nd           | Web:      www.OpenFOAM.org                      |
|    \\/     M anipulation  |                                                 |
\*---------------------------------------------------------------------------*/
FoamFile
{
    version     2.0;
    format      ascii;
    class       volScalarField;
    location    "500";
    object      p;
}
// * * * * * * * * * * * * * * * * * * * * * * * * * * * * * * * * * * * * * //

dimensions      [0 2 -2 0 0 0 0];

internalField   nonuniform List<scalar> 
90000
(
0.000152197
1.84719e-05
-0.000130389
-0.000172845
-0.000104215
3.08846e-06
3.07488e-05
4.03802e-05
6.69155e-05
6.46398e-05
2.67859e-05
-6.36914e-05
-0.000203847
-0.000202145
-8.8461e-05
-3.49623e-05
-6.4822e-05
-3.83186e-05
7.91165e-05
0.000219823
0.000291075
0.000231249
0.000121763
6.19697e-05
3.05305e-05
4.8608e-06
-1.45559e-06
3.15614e-05
0.000118641
0.000167237
8.81109e-05
1.28838e-05
3.10383e-05
4.94383e-05
4.17503e-05
4.12034e-05
6.928e-05
2.79035e-05
-7.56316e-05
-0.000138334
-0.000122828
-0.00011149
-0.000194841
-0.000334913
-0.000382328
-0.000232787
-2.67545e-05
9.90487e-05
0.000149292
0.000173219
0.000154451
2.07515e-05
-0.000130111
-0.000173708
-0.000104942
3.72169e-06
3.10474e-05
4.08285e-05
6.78581e-05
6.59496e-05
2.74907e-05
-6.37465e-05
-0.000206047
-0.000208385
-9.36491e-05
-3.74546e-05
-6.6285e-05
-4.12819e-05
7.67004e-05
0.000218886
0.000292306
0.000233833
0.000123279
6.3546e-05
3.23675e-05
5.14494e-06
-3.00095e-06
2.92372e-05
0.000117091
0.000168171
8.94738e-05
1.35857e-05
3.04295e-05
4.8888e-05
4.04809e-05
4.02871e-05
6.98263e-05
3.00031e-05
-7.44396e-05
-0.000137439
-0.000121888
-0.000109114
-0.000192397
-0.000335158
-0.000384435
-0.000234887
-2.87871e-05
9.86462e-05
0.000149321
0.000175145
0.000160177
2.33854e-05
-0.000132035
-0.000177028
-0.000107005
3.64155e-06
3.0936e-05
3.95115e-05
6.77534e-05
6.60649e-05
2.57724e-05
-6.63468e-05
-0.000208788
-0.000209696
-9.88364e-05
-4.72295e-05
-7.70879e-05
-4.74571e-05
7.30347e-05
0.000217835
0.000295133
0.000238313
0.000125907
6.51106e-05
3.39033e-05
3.59819e-06
-6.91868e-06
2.43027e-05
0.000115677
0.000170536
9.19039e-05
1.36966e-05
2.95167e-05
4.84716e-05
3.85017e-05
3.8731e-05
7.10852e-05
3.28376e-05
-7.29776e-05
-0.000136644
-0.000120953
-0.00010634
-0.000192814
-0.000343498
-0.000395374
-0.000242147
-3.25022e-05
9.92323e-05
0.000150814
0.000180786
0.000169878
2.75395e-05
-0.000136038
-0.000182613
-0.000111206
4.19136e-06
3.16271e-05
3.60534e-05
6.43729e-05
6.65345e-05
2.26982e-05
-6.90617e-05
-0.000209233
-0.000206444
-9.87225e-05
-5.91121e-05
-9.84392e-05
-6.94133e-05
5.85149e-05
0.00021234
0.000297336
0.000244146
0.00013007
6.68632e-05
3.45149e-05
-5.88128e-07
-1.34826e-05
1.66434e-05
0.000114058
0.000174653
9.5779e-05
1.26088e-05
2.55896e-05
4.68971e-05
3.62904e-05
3.74091e-05
7.23747e-05
3.69052e-05
-7.07281e-05
-0.000136385
-0.000120734
-0.000102545
-0.000193922
-0.000359049
-0.000417192
-0.000258469
-3.94289e-05
0.000101342
0.000153265
0.000190095
0.000183213
3.58221e-05
-0.000141078
-0.000188542
-0.000116178
3.73802e-06
3.24925e-05
3.03615e-05
5.66335e-05
6.62939e-05
2.07091e-05
-6.54134e-05
-0.000201471
-0.000199973
-9.61331e-05
-6.45254e-05
-0.00012201
-0.000103899
2.99851e-05
0.000192305
0.000289656
0.000248498
0.000135628
7.02679e-05
3.52982e-05
-7.52257e-06
-2.19945e-05
7.95769e-06
0.000115281
0.000180968
0.000101218
1.09466e-05
1.88162e-05
4.25424e-05
3.447e-05
3.61449e-05
7.38489e-05
4.20261e-05
-6.54547e-05
-0.000135674
-0.000122894
-9.91021e-05
-0.000190771
-0.000371707
-0.000437787
-0.000278846
-5.41102e-05
0.000101129
0.000163222
0.000202118
0.000195871
4.55548e-05
-0.000146755
-0.000194856
-0.000118772
3.35618e-06
3.14758e-05
2.09193e-05
4.4434e-05
6.53656e-05
1.96187e-05
-5.27621e-05
-0.000180269
-0.000187501
-9.48951e-05
-6.33938e-05
-0.000130322
-0.000133148
-1.43361e-05
0.000156652
0.000267352
0.000243788
0.000139779
7.64123e-05
4.08112e-05
-1.44138e-05
-3.01917e-05
1.50934e-06
0.00011709
0.00018979
0.000106443
1.06299e-05
1.0957e-05
3.65607e-05
3.46688e-05
3.55647e-05
7.41757e-05
4.75978e-05
-5.61014e-05
-0.000131712
-0.000127103
-9.9554e-05
-0.000182688
-0.000378301
-0.000452247
-0.000293082
-6.9928e-05
9.23864e-05
0.000166001
0.000214479
0.000200648
5.34672e-05
-0.000148036
-0.000202987
-0.000118802
3.5205e-06
3.00771e-05
9.43223e-06
2.83842e-05
6.58075e-05
2.5016e-05
-3.75941e-05
-0.000138267
-0.000166635
-9.30891e-05
-6.37793e-05
-0.000120803
-0.000145691
-6.31071e-05
0.000102074
0.000231086
0.00022908
0.000137985
8.09381e-05
5.2925e-05
-1.52969e-05
-3.5808e-05
-2.0246e-06
0.000124782
0.000202012
0.000118775
1.39336e-05
2.89628e-06
2.7765e-05
3.73823e-05
3.55183e-05
7.11687e-05
4.98476e-05
-4.69364e-05
-0.000124241
-0.000128708
-0.000103376
-0.000173191
-0.000382477
-0.000465758
-0.000307382
-8.73423e-05
7.65741e-05
0.000158435
0.000211842
0.000184265
5.30912e-05
-0.000148419
-0.00020991
-0.000115496
8.83028e-06
3.18557e-05
-3.78859e-07
8.7079e-06
6.73367e-05
3.62177e-05
-2.76121e-05
-0.000119622
-0.000138317
-8.39247e-05
-6.40406e-05
-0.000113187
-0.000146286
-9.23676e-05
3.48228e-05
0.000181576
0.000203784
0.000131052
8.39252e-05
6.61767e-05
-6.19601e-06
-3.89844e-05
-7.55561e-06
0.000126705
0.000216947
0.00013779
2.34225e-05
-5.12584e-06
1.3497e-05
4.21321e-05
3.83021e-05
6.33636e-05
4.70099e-05
-4.37157e-05
-0.000118031
-0.000129776
-0.000109378
-0.000172605
-0.00038569
-0.000485768
-0.000333248
-0.000116463
4.85904e-05
0.000132224
0.000179341
0.000146475
4.3181e-05
-0.000145169
-0.000206615
-0.000105329
1.78885e-05
3.36673e-05
-5.62698e-06
-6.03026e-06
6.56876e-05
4.66329e-05
-3.2925e-05
-0.000120607
-0.000115209
-7.09447e-05
-5.79072e-05
-0.000106485
-0.000141262
-0.000114672
-1.0028e-05
0.000123282
0.000173217
0.000116411
8.17972e-05
7.86334e-05
1.47493e-05
-4.09037e-05
-2.06718e-05
0.000121771
0.000231577
0.000160269
3.7414e-05
-1.33171e-05
-8.08824e-06
4.53452e-05
5.36344e-05
6.12077e-05
3.8176e-05
-4.53617e-05
-0.000118534
-0.000136243
-0.000119427
-0.000173646
-0.000383576
-0.00051118
-0.00036648
-0.000152489
1.00032e-05
8.38983e-05
0.000121041
9.94774e-05
2.61124e-05
-0.000138688
-0.000185007
-8.04608e-05
3.39019e-05
3.0859e-05
-9.26138e-06
-1.0139e-05
6.53267e-05
5.68596e-05
-5.56131e-05
-0.000132031
-0.000116851
-7.32685e-05
-6.34778e-05
-9.98207e-05
-0.000132276
-0.000123999
-3.62663e-05
7.92168e-05
0.000141237
9.532e-05
7.17422e-05
9.20389e-05
3.74617e-05
-3.59221e-05
-4.16973e-05
0.000103681
0.000244163
0.000184026
4.6711e-05
-2.5532e-05
-4.48247e-05
3.99374e-05
8.24494e-05
8.10061e-05
3.10355e-05
-4.75477e-05
-0.000120983
-0.000152159
-0.000135152
-0.000164209
-0.000358204
-0.00053054
-0.00039693
-0.000183975
-2.23526e-05
3.71903e-05
6.68277e-05
6.178e-05
3.87686e-06
-0.000137763
-0.000157485
-5.03069e-05
4.61303e-05
2.22635e-05
-1.34924e-05
3.28171e-07
7.33299e-05
7.07145e-05
-3.72683e-05
-0.000123277
-0.000121601
-8.12986e-05
-8.53485e-05
-0.000103728
-0.000125829
-0.000116687
-5.45434e-05
3.40893e-05
0.000100846
6.71525e-05
4.81101e-05
9.57402e-05
5.48425e-05
-2.85378e-05
-6.29056e-05
7.1698e-05
0.000234513
0.000211148
5.2186e-05
-3.95047e-05
-8.15582e-05
3.42993e-05
0.000120366
0.000123459
4.44087e-05
-4.1888e-05
-0.000114826
-0.000170388
-0.000163214
-0.000174266
-0.000354296
-0.000578343
-0.000444001
-0.000214466
-3.66762e-05
1.67772e-05
3.40769e-05
4.65346e-05
-1.14461e-08
-0.000126329
-0.00013528
-3.83725e-05
3.40361e-05
1.47615e-06
-2.08422e-05
1.83806e-05
0.000100485
8.82202e-05
-1.66401e-05
-0.00010036
-0.000106549
-8.5909e-05
-0.000106101
-0.000113638
-0.000110118
-9.67577e-05
-6.80794e-05
-1.44386e-05
4.63277e-05
2.74124e-05
8.14405e-06
7.60534e-05
5.31671e-05
-2.57762e-05
-3.34976e-05
5.4132e-05
0.000218056
0.000231713
5.58029e-05
-4.95095e-05
-0.000101032
4.51085e-05
0.000172087
0.000181898
6.9467e-05
-3.01e-05
-0.000103559
-0.000187209
-0.0002107
-0.000180598
-0.000349246
-0.000619649
-0.000493028
-0.00023432
-3.54715e-05
1.05191e-05
1.86197e-05
3.28368e-05
8.73853e-06
-9.7333e-05
-0.000110765
-4.43947e-05
3.37647e-06
-3.4218e-05
-3.22791e-05
4.50464e-05
0.000129282
0.000106285
7.18089e-06
-5.75083e-05
-7.71506e-05
-9.22758e-05
-0.000120066
-0.000119066
-9.26009e-05
-8.20749e-05
-7.63264e-05
-5.05094e-05
-9.7e-06
-2.87365e-05
-5.02733e-05
3.7932e-05
4.34432e-05
-2.94317e-05
-2.23339e-05
5.40835e-05
0.000202701
0.00023006
5.66473e-05
-5.41959e-05
-6.33934e-05
7.86734e-05
0.000241139
0.000249917
9.56004e-05
-2.3829e-05
-9.41078e-05
-0.000182626
-0.00021001
-0.000169317
-0.00030012
-0.000551238
-0.000483143
-0.000231457
-3.32528e-05
-1.39521e-06
-2.03231e-06
9.80456e-06
-1.08082e-05
-8.41706e-05
-9.54162e-05
-4.3914e-05
-3.61363e-05
-7.23953e-05
-4.58515e-05
5.6355e-05
0.000152445
0.000125456
3.26082e-05
-1.55871e-05
-5.4694e-05
-9.08746e-05
-0.000114082
-0.000115186
-8.03783e-05
-8.11055e-05
-8.63275e-05
-6.87198e-05
-4.58284e-05
-7.67697e-05
-0.000110039
-6.40836e-06
2.72833e-05
-2.57359e-05
-2.1493e-06
5.9214e-05
0.000175108
0.000217099
4.13443e-05
-7.0835e-05
-2.66463e-05
8.55276e-05
0.000290766
0.000300228
0.000133734
-1.80757e-05
-7.21352e-05
-0.000141635
-0.000193348
-0.000151384
-0.000224549
-0.000416638
-0.000429559
-0.000221322
-4.42345e-05
-1.90924e-05
-2.56803e-05
-1.48644e-05
-1.98333e-05
-7.53766e-05
-7.76973e-05
-3.49479e-05
-4.6747e-05
-0.000101265
-6.76383e-05
4.89225e-05
0.000156774
0.000136414
4.48843e-05
-1.64319e-05
-5.03062e-05
-8.2562e-05
-0.000103264
-0.000111594
-7.64312e-05
-7.76841e-05
-7.80182e-05
-8.20299e-05
-7.58163e-05
-0.000105632
-0.000153384
-3.29505e-05
2.4806e-05
-2.82542e-05
6.89207e-06
6.15077e-05
0.000154783
0.000196947
2.62505e-06
-0.000118111
-7.5852e-05
4.74599e-05
0.000218591
0.000303441
0.000120445
-3.93669e-05
-8.67291e-05
-0.000115736
-0.000170544
-0.000149809
-0.000162067
-0.000317839
-0.000376662
-0.000232296
-7.22409e-05
-3.63701e-05
-5.07093e-05
-3.17185e-05
-2.59623e-05
-6.28637e-05
-6.17743e-05
-2.41966e-05
-4.10048e-05
-0.000117289
-9.60675e-05
2.60798e-05
0.000146741
0.00013538
4.09666e-05
-3.48676e-05
-6.66585e-05
-8.3281e-05
-9.76444e-05
-0.00011425
-7.60323e-05
-7.10822e-05
-6.36484e-05
-8.4212e-05
-9.87719e-05
-0.0001168
-0.000188884
-5.792e-05
2.17256e-05
-2.56294e-05
1.36245e-05
5.4583e-05
0.000125117
0.00015324
-3.03224e-05
-0.000157496
-0.000123758
3.15949e-07
0.000135318
0.000231363
9.54564e-05
-5.69532e-05
-9.50117e-05
-0.000100291
-0.000148075
-0.000160572
-0.000160109
-0.000242582
-0.000331943
-0.000246381
-0.000123778
-7.05279e-05
-5.63282e-05
-4.8407e-05
-2.93426e-05
-4.43787e-05
-4.364e-05
-2.12929e-05
-3.48101e-05
-8.64241e-05
-9.42233e-05
3.06573e-06
0.000128027
0.000125443
3.38369e-05
-5.4684e-05
-8.93846e-05
-9.41075e-05
-9.75319e-05
-0.00011741
-7.4736e-05
-5.5905e-05
-3.89821e-05
-7.52512e-05
-0.000108972
-0.000140436
-0.000202438
-7.99111e-05
1.4724e-05
-1.50032e-05
2.79217e-05
4.98847e-05
7.45477e-05
8.90782e-05
-4.21841e-05
-0.000154722
-8.9258e-05
1.61631e-05
8.2335e-05
0.000138002
5.65702e-05
-2.23532e-05
-3.85275e-05
-5.56742e-05
-0.000115236
-0.000157369
-0.000151789
-0.000200472
-0.000279422
-0.000256345
-0.000151768
-9.95394e-05
-7.42679e-05
-7.32917e-05
-4.59555e-05
-2.82825e-05
-2.64307e-05
-2.82246e-05
-4.34627e-05
-5.48923e-05
-5.20108e-05
-2.01621e-06
0.000104247
0.000124311
4.36976e-05
-6.20999e-05
-0.000110525
-0.000101328
-9.29593e-05
-0.00011764
-6.26548e-05
-4.22139e-05
-1.63475e-06
-4.01002e-05
-0.000108134
-0.00015733
-0.000195464
-0.00012489
-1.28694e-05
5.99965e-06
4.88517e-05
6.48565e-05
5.58731e-05
4.86084e-05
-2.4464e-05
-0.000101618
-8.25381e-05
-1.26488e-05
3.00763e-05
8.45786e-05
5.5852e-05
-1.43116e-05
-1.6708e-05
-1.85628e-05
-7.51546e-05
-0.000136009
-0.000170134
-0.000200672
-0.000245698
-0.000224142
-0.000155656
-0.000113017
-8.70615e-05
-9.67973e-05
-7.24675e-05
-2.44657e-05
-1.15532e-05
-3.8456e-05
-6.00406e-05
-4.30969e-05
-1.4887e-05
-3.99174e-06
3.39505e-05
7.72771e-05
4.33656e-05
-5.37673e-05
-0.000110241
-9.33883e-05
-8.10982e-05
-0.000107217
-9.71678e-05
-5.24745e-05
8.90323e-07
-6.95989e-06
-7.96137e-05
-0.000151937
-0.000177782
-0.000117734
-3.13807e-05
1.03536e-05
5.67849e-05
8.28269e-05
9.62715e-05
4.31132e-05
-1.25708e-05
-6.24577e-05
-8.50846e-05
-7.82804e-05
-4.67528e-05
2.6985e-05
5.11541e-05
-1.36431e-05
-2.56309e-05
-3.30139e-05
-6.94278e-05
-0.000118172
-0.000172529
-0.000205869
-0.000237406
-0.000221825
-0.000165697
-0.000114998
-9.504e-05
-9.04102e-05
-8.92725e-05
-3.70068e-05
1.0706e-05
-1.28246e-05
-4.00657e-05
-3.28279e-05
1.54933e-05
2.0478e-05
-2.6365e-05
-4.67066e-06
1.48827e-05
-3.70688e-05
-8.30712e-05
-6.20359e-05
-4.69633e-05
-8.0376e-05
-8.59353e-05
-4.2537e-05
2.69311e-06
9.05343e-06
-5.28453e-05
-0.000124136
-0.000154782
-0.000116037
-4.86798e-05
-1.25291e-05
1.32955e-05
5.30438e-05
9.81235e-05
4.84545e-05
-1.638e-05
-5.24518e-05
-5.98715e-05
-4.36791e-05
-2.4954e-05
1.8917e-05
3.21735e-05
-4.88622e-06
3.64254e-06
5.93287e-06
-5.2746e-05
-0.000105255
-0.000142423
-0.000168928
-0.000204086
-0.000219232
-0.000187126
-0.00013187
-8.97476e-05
-8.09713e-05
-7.69437e-05
-5.24296e-05
-2.65334e-06
1.79082e-05
-1.60892e-05
6.13327e-06
3.70735e-05
3.21861e-05
-4.19503e-05
-6.25028e-05
-1.79774e-05
-2.33095e-05
-5.72108e-05
-4.79129e-05
-3.1905e-05
-6.27817e-05
-7.14666e-05
-3.13939e-05
-1.39715e-06
6.6199e-06
-4.18035e-05
-9.99984e-05
-0.000114891
-8.51573e-05
-4.85505e-05
3.88353e-06
2.96908e-05
4.69514e-05
5.4275e-05
2.27692e-05
-1.98098e-05
-1.96049e-05
-1.41328e-05
-5.69281e-06
-7.58113e-06
1.51551e-05
2.44628e-05
-3.03144e-06
8.6005e-06
3.85889e-05
-5.66833e-06
-8.4329e-05
-0.000123156
-0.000138369
-0.000168705
-0.000196099
-0.000189964
-0.000148072
-0.000100944
-9.04015e-05
-6.74901e-05
-3.63856e-05
5.55076e-06
8.23644e-06
-7.10163e-06
1.13547e-05
4.4418e-05
4.47453e-05
-4.62968e-05
-0.000104999
-4.32864e-05
-4.04063e-05
-5.75854e-05
-5.78867e-05
-5.00103e-05
-7.63743e-05
-8.11988e-05
-4.2312e-05
-6.08566e-06
1.45269e-05
-9.53306e-06
-6.33005e-05
-8.80578e-05
-7.27358e-05
-4.42832e-05
1.02494e-05
4.96224e-05
6.79432e-05
4.77089e-05
2.6492e-05
-2.12817e-06
4.64644e-06
5.96396e-06
2.63227e-06
-1.61436e-05
-7.37805e-06
1.0149e-05
7.03604e-06
2.84872e-05
5.71291e-05
1.54187e-05
-8.12331e-05
-0.00013466
-0.000138622
-0.00014769
-0.000154805
-0.000152358
-0.000132306
-0.000104981
-0.000100102
-7.49864e-05
-3.83445e-05
3.01121e-06
1.97169e-05
9.98185e-06
7.32323e-06
2.96041e-05
4.58003e-05
-2.09996e-05
-0.000101446
-6.50629e-05
-3.83398e-05
-5.05246e-05
-6.06628e-05
-6.95147e-05
-8.68354e-05
-8.53814e-05
-5.02326e-05
-1.20599e-05
3.52007e-06
-2.04832e-07
-3.23042e-05
-6.45424e-05
-6.19541e-05
-3.32961e-05
5.76045e-06
4.51036e-05
3.8591e-05
4.17626e-05
2.71878e-05
2.988e-05
4.10449e-05
4.52214e-05
3.7037e-05
1.28614e-05
1.1572e-06
1.45646e-05
1.07336e-05
2.86874e-05
7.80417e-05
6.6748e-05
-3.97039e-05
-0.000147594
-0.000156642
-0.000141348
-0.000111166
-9.2743e-05
-9.34032e-05
-8.95554e-05
-9.50897e-05
-7.89528e-05
-4.31929e-05
1.19258e-07
2.95694e-05
2.34236e-05
2.78475e-05
3.11871e-05
3.94241e-05
-9.03719e-07
-6.15633e-05
-5.4041e-05
-3.78443e-05
-4.17491e-05
-6.13402e-05
-7.69277e-05
-0.000101986
-9.75479e-05
-6.00346e-05
-1.73947e-05
9.84175e-06
1.49429e-05
-2.90265e-06
-3.33963e-05
-3.59801e-05
-1.92789e-06
1.0647e-05
3.60222e-05
4.73789e-05
5.28506e-05
4.71304e-05
4.83556e-05
5.58731e-05
5.87442e-05
4.86438e-05
1.62945e-05
-3.80768e-07
1.61271e-05
2.86731e-05
2.69855e-05
4.97482e-05
6.36402e-05
5.66102e-06
-6.98205e-05
-0.000127086
-0.000125666
-0.000105882
-8.56467e-05
-7.5523e-05
-8.3627e-05
-9.40108e-05
-8.32744e-05
-4.99855e-05
-1.01082e-05
2.65119e-05
3.4149e-05
2.1508e-05
1.70002e-05
2.60849e-05
8.28001e-07
-5.84829e-05
-6.22406e-05
-3.92679e-05
-2.67472e-05
-4.44956e-05
-7.8188e-05
-0.00010977
-0.000118351
-8.92321e-05
-4.85932e-05
-1.57804e-05
4.73165e-06
5.99418e-06
-1.18179e-05
-2.08335e-05
-6.80862e-06
1.65737e-05
4.80371e-05
5.90982e-05
4.73216e-05
4.14901e-05
3.99783e-05
3.60066e-05
3.71904e-05
3.37927e-05
1.84375e-05
9.70196e-06
2.01091e-05
3.02031e-05
2.9127e-05
3.39667e-05
2.54081e-05
-9.78208e-06
-5.9415e-05
-9.68145e-05
-9.88036e-05
-8.62287e-05
-8.10241e-05
-7.46764e-05
-8.22907e-05
-7.76954e-05
-7.36131e-05
-4.74913e-05
-1.27031e-05
2.19203e-05
2.40214e-05
2.19623e-05
6.66334e-06
9.84121e-06
9.50692e-07
-3.55466e-05
-5.74358e-05
-5.40909e-05
-3.89835e-05
-3.03212e-05
-4.54423e-05
-7.56127e-05
-9.70422e-05
-8.74898e-05
-5.6984e-05
-2.64358e-05
-7.86609e-06
-2.14818e-06
-7.34512e-06
-4.5004e-06
5.61738e-06
2.7059e-05
5.71419e-05
7.05266e-05
6.3342e-05
5.05067e-05
4.31933e-05
3.07511e-05
2.37732e-05
2.34112e-05
1.66796e-05
-1.30113e-07
1.01732e-05
1.82852e-05
2.31093e-05
2.49263e-05
1.46752e-05
-1.17674e-05
-4.37509e-05
-6.42262e-05
-7.01608e-05
-6.50758e-05
-6.71846e-05
-6.5968e-05
-6.70058e-05
-5.54725e-05
-5.50216e-05
-4.13012e-05
-2.03217e-05
7.99449e-06
4.3378e-05
3.29305e-05
1.63161e-05
7.09876e-06
-5.36347e-06
-3.04076e-05
-4.46301e-05
-4.2957e-05
-3.69944e-05
-3.26217e-05
-3.77648e-05
-5.1781e-05
-6.36661e-05
-6.20698e-05
-4.82103e-05
-2.99639e-05
-1.29584e-05
1.14715e-07
2.62037e-06
3.13928e-06
7.37872e-06
2.46042e-05
5.10243e-05
7.06499e-05
6.77006e-05
5.74381e-05
4.61338e-05
2.97518e-05
1.72163e-05
1.75051e-05
1.74549e-05
5.31996e-06
1.58263e-05
1.93725e-05
2.18671e-05
2.0062e-05
9.21037e-06
-9.99455e-06
-3.08824e-05
-4.61111e-05
-5.18729e-05
-5.03492e-05
-5.29257e-05
-5.28248e-05
-5.23748e-05
-4.00872e-05
-3.85196e-05
-3.10488e-05
-1.85397e-05
-5.13185e-06
1.30741e-05
1.86778e-05
5.96408e-06
6.07026e-07
-5.8278e-06
-2.13983e-05
-3.4256e-05
-3.53632e-05
-3.43753e-05
-2.93868e-05
-2.69562e-05
-3.35728e-05
-4.465e-05
-4.79389e-05
-3.91523e-05
-2.78431e-05
-1.57947e-05
-6.24061e-06
-1.05658e-06
9.24073e-07
7.64369e-06
2.0868e-05
4.01735e-05
5.49516e-05
5.3163e-05
4.74079e-05
3.6774e-05
2.55643e-05
1.67552e-05
1.48574e-05
2.18343e-05
1.84669e-05
1.43311e-05
1.47853e-05
1.47114e-05
1.05719e-05
8.15544e-07
-1.27798e-05
-2.51144e-05
-3.36156e-05
-3.64429e-05
-3.27055e-05
-3.45926e-05
-3.75628e-05
-3.89147e-05
-2.44573e-05
-2.83453e-05
-2.90065e-05
-2.71423e-05
-2.17853e-05
-8.77078e-06
-4.96199e-06
-1.205e-05
-1.35104e-05
-1.71157e-05
-2.69944e-05
-3.38816e-05
-3.24434e-05
-2.98158e-05
-2.89709e-05
-2.79705e-05
-2.75394e-05
-3.03297e-05
-3.3318e-05
-3.25024e-05
-2.56035e-05
-1.78872e-05
-8.18102e-06
6.9392e-07
1.59346e-06
1.20194e-06
6.37824e-06
2.72274e-05
3.97492e-05
4.24881e-05
3.7839e-05
3.17807e-05
2.43808e-05
1.82746e-05
1.64781e-05
2.00461e-05
1.94185e-05
1.55595e-05
1.42189e-05
1.16586e-05
4.95744e-06
-3.43894e-06
-1.16627e-05
-1.90969e-05
-2.50831e-05
-2.87356e-05
-2.71278e-05
-2.24956e-05
-2.31064e-05
-2.23864e-05
-9.37503e-06
-1.43839e-05
-1.97244e-05
-2.51538e-05
-2.88984e-05
-2.7761e-05
-2.80339e-05
-3.27575e-05
-3.5632e-05
-3.61952e-05
-3.91847e-05
-3.903e-05
-3.49036e-05
-3.13363e-05
-3.06324e-05
-2.69784e-05
-2.0638e-05
-1.98453e-05
-2.33765e-05
-2.05897e-05
-1.38354e-05
-1.13193e-05
-7.47703e-06
-1.73385e-06
-3.48873e-07
-5.23594e-07
5.73503e-06
1.66663e-05
2.58477e-05
2.86827e-05
2.91449e-05
3.25654e-05
2.71574e-05
2.32665e-05
2.30198e-05
2.40961e-05
2.19292e-05
1.80853e-05
1.5314e-05
1.11805e-05
3.62382e-06
-4.41468e-06
-9.82316e-06
-1.48971e-05
-1.93421e-05
-2.57071e-05
-3.16067e-05
-2.19214e-05
-1.49238e-05
-7.26707e-06
0.000197393
0.000125218
-8.65031e-05
-0.000146214
-7.49563e-05
-3.78894e-05
4.94818e-06
0.000116063
0.000191592
0.000136076
7.03874e-05
5.72807e-05
6.82773e-05
3.59331e-05
-3.69144e-06
-3.02346e-05
-0.000104757
-0.00021859
-0.000262917
-0.000187402
-9.14026e-05
-3.2983e-05
8.25919e-06
2.26436e-05
4.73008e-05
0.00014328
0.000247786
0.000298607
0.000332973
0.000240268
5.51764e-05
-2.74905e-05
5.30851e-05
0.000117557
7.67539e-05
1.30723e-06
-5.9233e-05
-0.000146618
-0.000234565
-0.000233147
-0.000212234
-0.000244133
-0.000251761
-0.000192438
-0.00013191
-2.85702e-06
0.000138715
0.000104754
-1.57825e-05
6.62122e-05
0.00019795
0.000126117
-8.73575e-05
-0.00014723
-7.44129e-05
-3.74973e-05
4.70712e-06
0.000115881
0.000193111
0.00013682
6.98461e-05
5.5303e-05
6.78643e-05
3.6751e-05
-3.56261e-06
-2.8831e-05
-0.000103053
-0.000218835
-0.000265192
-0.000189306
-9.23937e-05
-3.3109e-05
9.30234e-06
2.32713e-05
4.67574e-05
0.000142808
0.000248074
0.000298952
0.000334702
0.000242603
5.53567e-05
-2.87276e-05
5.22619e-05
0.000117649
7.73316e-05
1.74212e-06
-5.84281e-05
-0.000146142
-0.000235191
-0.000233433
-0.000211743
-0.000244449
-0.000253289
-0.000193409
-0.000134881
-2.9997e-06
0.000141119
0.00010581
-1.92568e-05
6.25435e-05
0.000199986
0.000127624
-9.01994e-05
-0.000149878
-7.30889e-05
-3.66691e-05
5.2306e-06
0.00011652
0.000197506
0.000139367
7.05931e-05
5.32861e-05
6.77015e-05
3.92159e-05
-1.73288e-06
-2.57422e-05
-0.000101634
-0.000223484
-0.000274185
-0.000195056
-9.51838e-05
-3.34523e-05
8.21406e-06
2.274e-05
4.49565e-05
0.000142314
0.00024934
0.000300629
0.00033796
0.000246771
5.42659e-05
-3.1856e-05
5.17555e-05
0.000118556
7.81212e-05
1.80089e-06
-5.82403e-05
-0.00014678
-0.0002371
-0.000234232
-0.000211538
-0.000246874
-0.000260248
-0.000200252
-0.000136132
-9.91676e-07
0.000147073
0.000107523
-2.49375e-05
5.67762e-05
0.00020592
0.000130407
-9.43102e-05
-0.000156291
-7.38313e-05
-3.63201e-05
5.80009e-06
0.000118686
0.000203423
0.000143357
7.40578e-05
5.3906e-05
6.936e-05
4.03844e-05
-3.21574e-06
-2.26879e-05
-9.7173e-05
-0.000228064
-0.000289109
-0.000205908
-9.9023e-05
-3.34198e-05
3.77716e-06
1.80127e-05
3.93507e-05
0.000141145
0.000254001
0.000302571
0.00034235
0.000253393
5.1753e-05
-3.75875e-05
5.13678e-05
0.000120528
7.97568e-05
2.09214e-06
-5.78927e-05
-0.00014838
-0.000240147
-0.000234537
-0.000211238
-0.000249599
-0.000268889
-0.000211506
-0.000149995
-8.19409e-06
0.000157707
0.000110896
-3.09815e-05
5.0991e-05
0.000219124
0.000139483
-9.7504e-05
-0.000166509
-7.95435e-05
-3.94686e-05
4.72621e-06
0.000120298
0.000209667
0.00014763
7.76302e-05
6.24933e-05
7.16212e-05
3.30178e-05
-1.35362e-05
-2.30391e-05
-9.2225e-05
-0.000227868
-0.000301138
-0.000218732
-0.000105971
-3.33391e-05
2.87287e-06
1.09474e-05
2.91864e-05
0.00013279
0.000249334
0.000300597
0.00034263
0.000261544
4.82827e-05
-4.59825e-05
5.01301e-05
0.000122925
8.14905e-05
2.44818e-06
-5.59844e-05
-0.000148737
-0.000244485
-0.000234168
-0.000208429
-0.00025125
-0.000283714
-0.000229158
-0.000167119
-2.71568e-05
0.00014027
9.74288e-05
-3.40941e-05
5.19093e-05
0.000240078
0.000158197
-9.57845e-05
-0.000178167
-9.06241e-05
-4.82656e-05
-5.6595e-07
0.000118572
0.000215808
0.00015207
7.8483e-05
6.29876e-05
6.77149e-05
1.65553e-05
-3.46288e-05
-2.82584e-05
-8.58309e-05
-0.000225475
-0.000311517
-0.000227273
-0.000113444
-3.37315e-05
5.14133e-06
8.63852e-06
1.81949e-05
0.000116473
0.000233799
0.000288909
0.000340088
0.00026804
4.31233e-05
-5.62587e-05
4.84211e-05
0.000124483
8.19726e-05
1.62412e-06
-5.38053e-05
-0.000147172
-0.000248579
-0.000234637
-0.000203068
-0.000267092
-0.000305878
-0.000262862
-0.000197861
-6.08734e-05
9.89508e-05
5.9584e-05
-4.87672e-05
5.66548e-05
0.000253126
0.000177094
-8.50577e-05
-0.000180487
-9.97756e-05
-6.28301e-05
-1.18022e-05
0.000110534
0.000218452
0.000159505
7.70837e-05
5.73744e-05
5.81176e-05
2.42908e-06
-5.78986e-05
-3.75977e-05
-7.60039e-05
-0.000212541
-0.000329679
-0.000237993
-0.000119259
-3.45634e-05
9.09817e-06
1.07234e-05
1.06076e-05
9.43588e-05
0.000206503
0.000265998
0.000329942
0.000269285
3.55748e-05
-6.69058e-05
4.72791e-05
0.000124035
8.0922e-05
-1.85802e-07
-5.05367e-05
-0.000141728
-0.000249947
-0.0002385
-0.000197993
-0.000255574
-0.000318919
-0.000301193
-0.000246605
-0.000108361
3.59734e-05
-6.07763e-06
-8.50314e-05
5.40403e-05
0.000253017
0.000191774
-6.38293e-05
-0.000162254
-9.54932e-05
-7.64771e-05
-2.86729e-05
9.40231e-05
0.0002115
0.000168505
7.90376e-05
4.5649e-05
4.95378e-05
4.73201e-06
-6.71953e-05
-5.20248e-05
-6.52743e-05
-0.000193665
-0.000343899
-0.000270046
-0.00013723
-4.05548e-05
9.4755e-06
1.40494e-05
7.76207e-06
7.81538e-05
0.000169343
0.000231859
0.000307284
0.000261501
2.91091e-05
-7.11913e-05
4.8797e-05
0.00011862
7.65108e-05
4.79222e-07
-4.40255e-05
-0.000129396
-0.000245685
-0.000244961
-0.00019708
-0.000233308
-0.000305463
-0.000322306
-0.000298765
-0.000161823
-3.90675e-05
-9.51619e-05
-0.000144105
3.10844e-05
0.000237134
0.000214168
-1.96571e-05
-0.00011591
-7.16174e-05
-7.94345e-05
-4.14939e-05
7.51944e-05
0.000199453
0.000173845
8.20239e-05
3.62631e-05
4.97904e-05
2.06425e-05
-6.32037e-05
-6.7837e-05
-6.38709e-05
-0.000171583
-0.000329562
-0.000311281
-0.000173582
-5.69847e-05
-7.54599e-07
1.1848e-05
1.22003e-05
6.97508e-05
0.000140485
0.00018496
0.000271002
0.000242365
2.64091e-05
-6.34928e-05
5.28592e-05
0.000106644
6.56653e-05
3.143e-06
-3.21039e-05
-0.000109789
-0.000233475
-0.000252688
-0.000201006
-0.000217622
-0.00028502
-0.000331432
-0.000337346
-0.000209838
-0.000103702
-0.000169675
-0.000200994
-2.5699e-06
0.000204812
0.000198207
-8.1259e-06
-8.36506e-05
-4.50517e-05
-6.89433e-05
-4.39766e-05
6.90147e-05
0.000192348
0.000176427
8.88208e-05
3.04823e-05
4.27204e-05
2.5084e-05
-6.24507e-05
-8.13146e-05
-7.37414e-05
-0.000152724
-0.000290274
-0.000320245
-0.000210614
-7.88549e-05
-1.83109e-05
-1.26017e-06
2.00166e-05
7.94699e-05
0.000142166
0.000162186
0.000231868
0.00022634
3.0115e-05
-4.97972e-05
5.03079e-05
8.45896e-05
4.95505e-05
3.86705e-06
-1.72679e-05
-8.93191e-05
-0.000218794
-0.000261184
-0.000212303
-0.000209748
-0.000261482
-0.000339183
-0.000370714
-0.000243875
-0.000144795
-0.000206382
-0.000220426
-1.73353e-05
0.000160977
9.93603e-05
-5.10205e-05
-9.52395e-05
-4.41743e-05
-6.34293e-05
-3.21275e-05
7.30345e-05
0.000198522
0.000188666
0.000102952
2.41934e-05
2.82751e-05
1.88838e-05
-6.6301e-05
-8.9565e-05
-8.24686e-05
-0.000139411
-0.00025598
-0.000300022
-0.000216403
-9.17035e-05
-3.371e-05
-1.76397e-05
2.20738e-05
8.97411e-05
0.00016778
0.000165412
0.000210426
0.000220938
3.55069e-05
-4.55474e-05
2.99386e-05
5.03068e-05
2.24389e-05
-7.52447e-06
-4.57219e-06
-7.16753e-05
-0.000206213
-0.000268112
-0.000223794
-0.000201268
-0.000238727
-0.000346333
-0.000412581
-0.00028865
-0.000170415
-0.000199892
-0.000207831
-2.22197e-05
0.000131444
7.00701e-05
-6.80427e-05
-9.49674e-05
-4.71324e-05
-7.65265e-05
-4.80774e-05
7.25984e-05
0.00021276
0.000205896
0.000128461
1.97672e-05
2.17933e-05
2.34755e-05
-6.49156e-05
-9.41037e-05
-8.72321e-05
-0.000131454
-0.000229807
-0.000283067
-0.000217155
-0.000101089
-4.38678e-05
-3.25652e-05
1.70985e-05
9.48446e-05
0.000179904
0.000161757
0.000187598
0.000206068
3.6787e-05
-5.57136e-05
5.86334e-07
1.25776e-05
-2.54002e-05
-3.11478e-05
2.4764e-07
-5.79413e-05
-0.000194524
-0.000268072
-0.000232034
-0.000199715
-0.000218856
-0.000336786
-0.000444121
-0.000345174
-0.000185959
-0.000167157
-0.000150186
-1.21478e-05
9.70519e-05
6.03493e-05
-5.8607e-05
-6.55401e-05
-3.00789e-05
-8.25512e-05
-7.31325e-05
5.57935e-05
0.00020698
0.000218521
0.000143034
2.67236e-05
2.69427e-05
2.973e-05
-5.73877e-05
-9.77631e-05
-9.53875e-05
-0.000137253
-0.000218159
-0.000269515
-0.000227143
-0.000127731
-6.20826e-05
-4.69126e-05
7.24517e-06
9.63908e-05
0.000147498
0.000136727
0.000155249
0.000187439
5.84495e-05
-6.22418e-05
-2.55385e-05
-8.91755e-06
-4.64485e-05
-5.30699e-05
1.51583e-06
-4.90806e-05
-0.000183618
-0.000257805
-0.000255871
-0.000209297
-0.000216409
-0.000325834
-0.000431965
-0.000345441
-0.00016627
-0.000123854
-0.000120856
-3.24503e-05
5.69702e-05
3.44035e-05
-4.51913e-05
-2.72337e-05
-3.95264e-08
-7.64418e-05
-8.90025e-05
3.9131e-05
0.000178963
0.000211839
0.000151371
3.78529e-05
2.73459e-05
1.90487e-05
-5.8571e-05
-9.74026e-05
-9.7943e-05
-0.000135969
-0.000197429
-0.00023313
-0.000218265
-0.000159155
-0.000102335
-7.57859e-05
-8.16499e-06
9.12982e-05
0.000143982
0.000104705
0.000120368
0.000167811
8.1878e-05
-4.34117e-05
-4.00868e-05
-7.90371e-06
-2.29043e-05
-6.76949e-05
4.17742e-06
-4.01926e-05
-0.000175914
-0.000252953
-0.000263568
-0.000221928
-0.000209808
-0.000300686
-0.000400327
-0.000315616
-0.000140609
-8.6541e-05
-9.6046e-05
-4.54346e-05
2.0586e-05
2.03848e-05
-3.01173e-05
-5.11252e-06
3.09365e-05
-5.61347e-05
-9.70033e-05
1.26777e-05
0.000154
0.000187585
0.000137245
3.58222e-05
1.157e-06
-1.79741e-05
-6.94654e-05
-9.21219e-05
-9.03475e-05
-0.000125074
-0.000170119
-0.000182045
-0.000179119
-0.000162562
-0.000140208
-0.000115166
-2.93138e-05
7.79833e-05
0.000118544
9.19172e-05
9.67207e-05
0.0001411
8.09056e-05
-2.08865e-05
-4.37827e-05
3.92765e-06
4.78111e-06
-3.441e-05
4.49387e-06
-3.53225e-05
-0.000175216
-0.000258039
-0.000260756
-0.00021241
-0.000189146
-0.000258267
-0.00034894
-0.000285986
-0.000136728
-6.59507e-05
-7.71971e-05
-5.45065e-05
-9.14248e-06
7.33195e-06
-1.66113e-05
1.17023e-05
4.72407e-05
-4.04087e-05
-8.37819e-05
-5.25445e-06
0.000140324
0.00016763
0.000120714
2.05513e-05
-3.8081e-05
-6.55877e-05
-8.35822e-05
-8.96195e-05
-8.80961e-05
-0.000123236
-0.000147739
-0.000136809
-0.000128349
-0.000137162
-0.000156536
-0.000158497
-7.41239e-05
5.30397e-05
9.55864e-05
0.000100484
9.37743e-05
0.000116331
6.83575e-05
-1.77914e-05
-3.94392e-05
2.74929e-05
3.69948e-05
-3.97861e-06
-1.80966e-05
-4.9287e-05
-0.000188597
-0.000245125
-0.000228578
-0.000174877
-0.000156514
-0.000216021
-0.000293286
-0.000251395
-0.00013857
-5.96094e-05
-6.461e-05
-6.28279e-05
-2.91241e-05
1.21163e-06
-1.00365e-06
1.74239e-05
4.5782e-05
-2.80746e-05
-8.32937e-05
-1.21622e-05
0.00015072
0.000169133
0.000115092
1.11558e-05
-6.46691e-05
-0.000105397
-0.000108903
-9.8164e-05
-9.12804e-05
-0.000107484
-0.000115421
-9.59426e-05
-8.58467e-05
-0.000107637
-0.000132167
-0.000157846
-0.000117483
2.44425e-05
0.000115707
0.000107555
9.44862e-05
9.27828e-05
5.6159e-05
-1.96797e-05
-1.83497e-05
6.35984e-05
7.78817e-05
1.22695e-05
-3.29205e-05
-6.24157e-05
-0.00010936
-0.0001815
-0.000174315