/*--------------------------------*- C++ -*----------------------------------*\
| =========                 |                                                 |
| \\      /  F ield         | OpenFOAM: The Open Source CFD Toolbox           |
|  \\    /   O peration     | Version:  2.3.0                                 |
|   \\  /    A nd           | Web:      www.OpenFOAM.org                      |
|    \\/     M anipulation  |                                                 |
\*---------------------------------------------------------------------------*/
FoamFile
{
    version     2.0;
    format      ascii;
    class       surfaceScalarField;
    location    "500";
    object      phi;
}
// * * * * * * * * * * * * * * * * * * * * * * * * * * * * * * * * * * * * * //

dimensions      [0 3 -1 0 0 0 0];

internalField   nonuniform List<scalar> 
263700
(
4.32171e-06
-2.48713e-07
-1.83976e-07
3.99071e-06
1.43707e-06
-8.90163e-07
3.47392e-06
2.14877e-06
-1.37341e-06
3.49458e-06
1.44321e-06
-1.73886e-06
4.1284e-06
4.00747e-07
-1.46822e-06
4.88597e-06
4.41538e-08
-5.73083e-07
5.09377e-06
6.89866e-07
-1.4404e-08
5.24153e-06
1.14604e-06
1.88171e-07
5.39886e-06
1.54912e-06
2.93157e-07
5.52207e-06
2.19599e-06
1.07383e-07
6.12215e-06
2.77915e-06
-1.22362e-06
6.74093e-06
3.17258e-06
-3.25795e-06
7.58368e-06
1.66475e-06
-4.12259e-06
9.13146e-06
-2.33073e-06
-2.5407e-06
1.01948e-05
-4.01389e-06
-2.84698e-07
9.52418e-06
-2.61634e-06
1.49495e-06
7.55863e-06
-1.10959e-06
2.82885e-06
5.78697e-06
-1.17212e-06
3.8742e-06
4.94483e-06
-2.21891e-06
4.00864e-06
4.91594e-06
-2.7885e-06
3.12442e-06
4.89807e-06
-2.07722e-06
1.69946e-06
4.48208e-06
-3.85063e-07
2.46614e-07
4.02345e-06
5.6146e-07
-4.69699e-07
3.85148e-06
9.52486e-07
-9.09997e-07
3.74937e-06
1.64398e-06
-1.21049e-06
3.7271e-06
2.08048e-06
-1.471e-06
3.83359e-06
1.56508e-06
-1.43137e-06
4.21809e-06
3.8003e-07
-1.03741e-06
4.76318e-06
-5.63228e-07
-3.97658e-07
4.98636e-06
-4.7371e-07
3.21922e-07
4.63531e-06
1.82241e-07
8.29564e-07
4.34665e-06
2.6828e-07
7.97428e-07
4.39371e-06
-1.33421e-07
4.58842e-07
4.39911e-06
-3.46741e-07
1.43013e-07
4.2363e-06
-3.84759e-07
-1.66215e-07
4.27464e-06
-9.95967e-07
-2.66138e-07
4.45547e-06
-1.05098e-06
-1.91801e-07
4.31275e-06
-4.70512e-08
-1.1505e-07
3.93e-06
8.44168e-07
-3.21976e-07
3.79331e-06
1.16962e-06
-8.89456e-07
3.97043e-06
1.28297e-06
-1.37269e-06
3.97187e-06
2.0567e-06
-1.88898e-06
3.54169e-06
3.44715e-06
-2.82083e-06
2.87943e-06
3.98877e-06
-3.28905e-06
2.55911e-06
2.89518e-06
-2.78604e-06
2.90139e-06
9.083e-07
-1.88179e-06
3.43483e-06
-8.62355e-07
-1.0227e-06
3.65471e-06
-1.49177e-06
-2.45229e-07
3.75549e-06
-1.66028e-06
4.0334e-07
-1.43091e-06
4.26793e-07
1.23779e-05
3.27873e-08
-7.81105e-08
1.18689e-05
5.03839e-06
-2.04195e-06
1.14016e-05
6.70798e-06
-3.63469e-06
1.19386e-05
4.58272e-06
-4.81839e-06
1.37437e-05
1.36933e-06
-4.31715e-06
1.58419e-05
5.40821e-08
-1.97505e-06
1.68157e-05
1.72388e-06
1.18361e-08
1.72869e-05
3.35089e-06
7.99751e-07
1.73609e-05
4.57061e-06
1.17092e-06
1.70539e-05
6.99452e-06
1.10847e-06
1.7774e-05
8.92415e-06
-1.37415e-06
1.9721e-05
9.10768e-06
-6.38508e-06
2.3553e-05
3.15405e-06
-8.6465e-06
2.92114e-05
-8.93675e-06
-5.40923e-06
3.38494e-05
-1.44667e-05
-1.0234e-06
3.46383e-05
-1.11299e-05
2.53199e-06
3.08754e-05
-5.67138e-06
5.91963e-06
2.47187e-05
-3.35423e-06
8.66676e-06
1.93666e-05
-4.60056e-06
9.02635e-06
1.6568e-05
-6.28496e-06
6.79361e-06
1.52396e-05
-4.79048e-06
3.2507e-06
1.4005e-05
-3.43913e-07
-1.09111e-07
1.28895e-05
2.50902e-06
-1.94831e-06
1.22908e-05
3.95264e-06
-2.93823e-06
1.21881e-05
5.51687e-06
-3.28571e-06
1.2571e-05
5.86819e-06
-3.2795e-06
1.31559e-05
3.65738e-06
-2.5913e-06
1.3922e-05
4.20025e-07
-1.37463e-06
1.4791e-05
-1.8043e-06
7.63345e-08
1.53402e-05
-1.04007e-06
1.49028e-06
1.53008e-05
8.50482e-07
2.63641e-06
1.51168e-05
1.42065e-06
2.71708e-06
1.47861e-05
3.15877e-07
2.10036e-06
1.41967e-05
-8.88941e-07
1.19711e-06
1.37101e-05
-1.42636e-06
1.88363e-07
1.36728e-05
-2.876e-06
-5.7399e-07
1.36383e-05
-2.49157e-06
-8.9406e-07
1.31575e-05
5.12844e-07
-1.07305e-06
1.27227e-05
3.10482e-06
-1.76344e-06
1.29323e-05
3.91877e-06
-3.04876e-06
1.34503e-05
4.37808e-06
-4.23114e-06
1.34133e-05
6.95847e-06
-5.65195e-06
1.26399e-05
1.11954e-05
-7.73746e-06
1.16988e-05
1.28182e-05
-8.64882e-06
1.1418e-05
9.70343e-06
-7.50222e-06
1.19002e-05
3.91882e-06
-5.15533e-06
1.2207e-05
-1.12946e-06
-2.63998e-06
1.20052e-05
-3.12276e-06
-6.68101e-07
1.19032e-05
-3.97221e-06
8.32148e-07
-3.3791e-06
1.0469e-06
2.0753e-05
2.5525e-07
8.69362e-07
2.04124e-05
9.06916e-06
-1.65415e-06
2.0468e-05
1.23213e-05
-4.45258e-06
2.13505e-05
8.92377e-06
-6.96833e-06
2.34548e-05
3.32515e-06
-7.61056e-06
2.65349e-05
-2.82224e-07
-5.04544e-06
2.84699e-05
2.28259e-06
-1.4887e-06
2.96517e-05
6.04714e-06
5.67446e-07
3.08159e-05
6.7301e-06
1.68618e-06
3.02881e-05
1.0399e-05
2.9712e-06
2.96437e-05
1.58142e-05
1.80949e-06
3.19672e-05
1.60453e-05
-4.22054e-06
3.8078e-05
5.0538e-06
-8.65652e-06
4.59664e-05
-1.47951e-05
-5.76962e-06
5.2813e-05
-2.49977e-05
-1.1844e-06
5.86153e-05
-2.3836e-05
1.49964e-06
6.12829e-05
-1.79931e-05
4.68935e-06
5.59263e-05
-9.856e-06
9.3852e-06
4.40334e-05
-4.96052e-06
1.23378e-05
3.34881e-05
-6.6132e-06
1.11657e-05
2.81104e-05
-6.88067e-06
6.70317e-06
2.58136e-05
-1.01214e-06
1.27875e-06
2.41549e-05
4.51189e-06
-2.47569e-06
2.28608e-05
8.30112e-06
-4.84093e-06
2.24589e-05
1.1291e-05
-5.89433e-06
2.30965e-05
1.12711e-05
-5.95932e-06
2.39357e-05
6.8366e-06
-4.51743e-06
2.45329e-05
7.22515e-07
-2.05386e-06
2.52098e-05
-3.1895e-06
3.3236e-07
2.61626e-05
-2.01772e-06
2.63902e-06
2.72096e-05
1.17731e-06
4.61095e-06
2.81936e-05
3.28427e-06
5.11335e-06
2.80415e-05
2.53141e-06
4.46719e-06
2.65031e-05
3.64982e-08
3.41976e-06
2.49105e-05
-2.42399e-06
2.13696e-06
2.41815e-05
-5.4762e-06
5.14825e-07
2.37563e-05
-4.99296e-06
-7.40825e-07
2.30655e-05
4.59466e-07
-1.60641e-06
2.27476e-05
5.70197e-06
-2.70218e-06
2.35549e-05
7.30848e-06
-4.21461e-06
2.5007e-05
7.54575e-06
-5.58178e-06
2.59154e-05
1.12939e-05
-7.20006e-06
2.58403e-05
1.89831e-05
-1.0043e-05
2.53146e-05
2.37298e-05
-1.26631e-05
2.51331e-05
2.06978e-05
-1.31981e-05
2.49372e-05
1.19948e-05
-1.08913e-05
2.37755e-05
2.98028e-06
-6.56939e-06
2.21717e-05
-1.93036e-06
-2.47783e-06
2.11617e-05
-4.63386e-06
2.95361e-07
-4.88858e-06
1.67851e-06
2.93698e-05
9.64877e-07
1.87363e-06
2.87747e-05
1.22281e-05
2.39943e-07
2.93338e-05
1.77721e-05
-3.423e-06
3.10128e-05
1.30511e-05
-7.01715e-06
3.3226e-05
5.53564e-06
-9.46491e-06
3.61707e-05
1.37655e-07
-8.73254e-06
3.83213e-05
3.27221e-06
-5.11299e-06
3.97747e-05
9.89917e-06
-1.6691e-06
4.28988e-05
8.73004e-06
5.06933e-07
4.4794e-05
9.21717e-06
3.64636e-06
4.33277e-05
1.94215e-05
5.17803e-06
4.41093e-05
2.20894e-05
2.26395e-06
5.06347e-05
5.8712e-06
-1.58359e-06
5.96186e-05
-2.00234e-05
-1.35973e-06
6.58383e-05
-3.0876e-05
6.45338e-07
6.87869e-05
-2.86691e-05
1.31309e-06
7.50205e-05
-3.02064e-05
2.73257e-06
8.22021e-05
-2.79606e-05
6.64444e-06
7.682e-05
-1.3825e-05
1.15815e-05
5.96563e-05
-5.13094e-06
1.40317e-05
4.51755e-05
-5.24671e-06
1.15762e-05
3.93217e-05
-2.06396e-06
5.75207e-06
3.77879e-05
3.99066e-06
-2.15971e-07
3.67721e-05
1.0986e-05
-4.99469e-06
3.60269e-05
1.79452e-05
-8.45345e-06
3.62229e-05
1.93924e-05
-1.02204e-05
3.6569e-05
1.26403e-05
-8.89812e-06
3.62402e-05
2.46224e-06
-4.78252e-06
3.58183e-05
-4.2961e-06
-1.55089e-07
3.6263e-05
-3.27412e-06
3.27747e-06
3.77883e-05
5.02192e-07
6.15399e-06
4.0425e-05
4.06851e-06
7.23097e-06
4.26097e-05
4.60166e-06
6.74311e-06
4.22278e-05
1.44683e-06
5.89888e-06
3.95404e-05
-2.80305e-06
5.16116e-06
3.66262e-05
-7.89708e-06
3.91632e-06
3.45348e-05
-8.48812e-06
1.74849e-06
3.31802e-05
-1.57435e-06
-6.68517e-07
3.27031e-05
6.97926e-06
-2.59499e-06
3.36794e-05
1.08586e-05
-4.07791e-06
3.59065e-05
1.06842e-05
-4.90386e-06
3.80569e-05
1.33699e-05
-5.96056e-06
3.95027e-05
2.24491e-05
-8.53164e-06
4.11913e-05
2.97423e-05
-1.17528e-05
4.35828e-05
2.8498e-05
-1.48182e-05
4.39748e-05
2.19925e-05
-1.63141e-05
4.03446e-05
1.3637e-05
-1.33135e-05
3.54474e-05
6.1307e-06
-7.26922e-06
3.21619e-05
9.35796e-08
-2.13494e-06
-3.60236e-06
1.15057e-06
3.86373e-05
4.68863e-06
1.64399e-06
3.69666e-05
1.53451e-05
1.56713e-06
3.69411e-05
2.29984e-05
-1.5416e-06
3.89092e-05
1.68519e-05
-5.39931e-06
4.2057e-05
6.48334e-06
-8.57312e-06
4.54367e-05
5.79328e-07
-1.01462e-05
4.72499e-05
5.90281e-06
-8.5673e-06
4.7994e-05
1.60039e-05
-5.12977e-06
5.17371e-05
1.30543e-05
-3.31721e-06
5.70174e-05
6.13041e-06
5.90906e-07
5.88841e-05
1.69933e-05
5.24774e-06
6.12642e-05
2.26848e-05
7.19146e-06
6.62551e-05
5.22297e-06
6.13577e-06
7.13742e-05
-2.31557e-05
4.54174e-06
7.79329e-05
-3.73822e-05
3.30437e-06
8.06911e-05
-2.96949e-05
4.19931e-07
7.84298e-05
-2.87253e-05
3.82871e-07
8.52705e-05
-4.22268e-05
4.696e-06
9.57282e-05
-3.7171e-05
9.17463e-06
8.83644e-05
-1.5214e-05
1.29044e-05
6.81321e-05
-3.18302e-06
1.41091e-05
5.42057e-05
-2.34566e-07
1.07545e-05
5.06555e-05
2.06014e-06
4.80506e-06
5.17144e-05
8.59473e-06
-1.67063e-06
5.36031e-05
2.00969e-05
-8.25199e-06
5.47736e-05
2.71147e-05
-1.37644e-05
5.38481e-05
2.16461e-05
-1.50135e-05
5.08613e-05
7.68876e-06
-1.04329e-05
4.77692e-05
-3.62132e-06
-3.19545e-06
4.63198e-05
-4.28814e-06
2.72033e-06
4.68315e-05
-7.84946e-07
6.66096e-06
4.94337e-05
3.61653e-06
8.08842e-06
5.38506e-05
5.06003e-06
7.69356e-06
5.79061e-05
2.97687e-07
6.92336e-06
5.80443e-05
-5.79324e-06
7.10758e-06
5.3575e-05
-1.02856e-05
7.59098e-06
4.76504e-05
-1.05645e-05
6.21313e-06
4.35116e-05
-3.82609e-06
2.32115e-06
4.19325e-05
6.1578e-06
-1.42561e-06
4.25993e-05
1.29607e-05
-3.08692e-06
4.51764e-05
1.31959e-05
-2.6529e-06
4.85573e-05
1.29729e-05
-2.51572e-06
5.13934e-05
2.05388e-05
-4.61428e-06
5.45528e-05
2.93362e-05
-8.20196e-06
6.01632e-05
2.83494e-05
-1.20423e-05
6.49766e-05
2.41236e-05
-1.60725e-05
6.2295e-05
2.29478e-05
-1.74354e-05
5.36916e-05
2.00932e-05
-1.35069e-05
4.60799e-05
1.30036e-05
-7.06741e-06
4.54323e-06
-1.57985e-06
4.89652e-05
1.36704e-05
-6.06369e-09
4.56642e-05
1.97111e-05
2.32129e-06
4.42139e-05
2.81653e-05
2.54345e-07
4.53138e-05
2.11829e-05
-3.75271e-06
4.88746e-05
7.32098e-06
-6.29409e-06
5.34734e-05
-2.89546e-07
-8.61868e-06
5.57413e-05
8.07878e-06
-9.67224e-06
5.62111e-05
2.24788e-05
-7.04882e-06
5.86382e-05
1.96897e-05
-6.70923e-06
6.34267e-05
7.8377e-06
-6.92805e-06
6.9255e-05
1.25102e-05
-5.61229e-07
7.87921e-05
1.47047e-05
6.32374e-06
8.69498e-05
5.74963e-07
6.72613e-06
8.49585e-05
-1.81597e-05
4.19399e-06
8.50209e-05
-3.75725e-05
4.01362e-06
9.48472e-05
-3.76683e-05
-3.51788e-07
9.48667e-05
-2.58785e-05
-3.24291e-06
8.74597e-05
-3.72414e-05
2.2725e-06
9.59579e-05
-5.5231e-05
9.22416e-06
0.000105095
-4.02611e-05
1.14372e-05
9.23338e-05
-1.09169e-05
1.31559e-05
7.24247e-05
1.99556e-06
1.3031e-05
6.24424e-05
1.99914e-06
9.84979e-06
6.24807e-05
3.7312e-06
4.36072e-06
6.84606e-05
1.47625e-05
-3.4049e-06
7.5864e-05
2.68988e-05
-1.26177e-05
7.75251e-05
2.828e-05
-1.86662e-05
7.13281e-05
1.63119e-05
-1.67373e-05
6.30961e-05
6.74756e-07
-8.37749e-06
5.76878e-05
-3.77565e-06
2.63752e-07
5.55467e-05
-1.42055e-06
5.58392e-06
5.6233e-05
3.49833e-06
7.28172e-06
6.01872e-05
5.63923e-06
7.00503e-06
6.76517e-05
-2.43379e-06
6.18244e-06
7.40545e-05
-1.33368e-05
6.47896e-06
7.27582e-05
-1.61541e-05
8.8742e-06
6.42333e-05
-1.13656e-05
9.88208e-06
5.56235e-05
-2.94674e-06
6.19261e-06
5.14408e-05
6.66042e-06
4.69211e-07
5.16918e-05
1.29379e-05
-1.42422e-06
5.48834e-05
1.36698e-05
-3.26088e-07
5.94547e-05
1.18015e-05
1.64954e-07
6.37355e-05
1.58138e-05
-1.52605e-06
6.79266e-05
2.46395e-05
-5.42795e-06
7.47319e-05
2.39159e-05
-1.04139e-05
8.27908e-05
2.04105e-05
-1.556e-05
8.39436e-05
2.57403e-05
-1.87278e-05
7.49691e-05
3.25944e-05
-1.76754e-05
6.30713e-05
3.12741e-05
-1.25967e-05
2.12426e-05
-6.29876e-06
6.01152e-05
2.75556e-05
-2.5962e-06
5.47215e-05
2.62642e-05
2.66749e-06
5.18015e-05
3.25378e-05
1.81545e-06
5.24669e-05
2.45586e-05
-2.08465e-06
5.61307e-05
9.39544e-06
-4.19101e-06
6.08989e-05
-7.52885e-07
-6.03647e-06
6.35587e-05
7.39255e-06
-8.45671e-06
6.47344e-05
2.62426e-05
-6.74604e-06
6.59317e-05
2.65771e-05
-7.76142e-06
6.72693e-05
1.33085e-05
-1.26158e-05
7.16162e-05
1.10328e-05
-8.8397e-06
8.37445e-05
3.84439e-06
-8.08299e-08
9.94236e-05
-1.00154e-05
-5.40594e-07
0.000101926
-1.37045e-05
-3.60069e-06
9.34814e-05
-2.61379e-05
8.65474e-07
9.90773e-05
-4.05897e-05
2.81208e-07
0.000109973
-3.2208e-05
-6.24611e-06
0.000101206
-2.67356e-05
-3.81019e-06
9.47502e-05
-5.47076e-05
8.93609e-06
0.000107926
-6.55022e-05
1.35206e-05
0.000110727
-3.26075e-05
1.24127e-05
9.3615e-05
-1.23271e-06
1.23521e-05
7.71269e-05
3.08967e-06
1.21071e-05
7.15684e-05
-2.0863e-07
1.02025e-05
7.64534e-05
5.92192e-06
4.70178e-06
8.90572e-05
1.82018e-05
-5.85614e-06
9.87497e-05
2.55668e-05
-1.63761e-05
9.48509e-05
2.15289e-05
-1.92391e-05
8.22663e-05
6.84964e-06
-1.29502e-05
7.12305e-05
-1.10253e-06
-3.67693e-06
6.49773e-05
-6.24198e-08
2.82314e-06
6.28166e-05
4.92667e-06
4.99617e-06
6.4564e-05
8.03007e-06
5.27094e-06
7.16436e-05
-3.24621e-06
5.31547e-06
8.21459e-05
-2.1944e-05
5.38976e-06
8.72475e-05
-2.6522e-05
7.80536e-06
8.08561e-05
-1.48736e-05
1.11157e-05
6.96616e-05
6.14174e-08
9.40672e-06
6.26668e-05
1.09855e-05
3.67707e-06
6.19408e-05
1.4855e-05
4.58191e-07
6.54601e-05
1.4032e-05
1.32451e-06
7.12009e-05
1.14061e-05
2.07291e-06
7.73676e-05
1.1241e-05
2.64065e-07
8.32353e-05
1.76289e-05
-3.55923e-06
9.04218e-05
1.79984e-05
-1.03858e-05
9.87661e-05
1.74726e-05
-1.79407e-05
0.000102133
2.7057e-05
-2.1862e-05
9.44091e-05
4.18596e-05
-2.09625e-05
8.02304e-05
5.04166e-05
-1.69065e-05
4.3648e-05
-1.1004e-05
7.13151e-05
4.08644e-05
-4.6668e-06
6.44952e-05
3.30099e-05
2.88175e-06
6.05378e-05
3.36564e-05
4.51512e-06
6.17141e-05
2.31961e-05
1.53981e-06
6.61887e-05
9.92057e-06
-1.3321e-06
7.01704e-05
8.89568e-07
-3.39483e-06
7.14635e-05
7.31827e-06
-5.47102e-06
7.29194e-05
2.67198e-05
-4.87785e-06
7.50261e-05
3.06976e-05
-7.34706e-06
7.52599e-05
1.9732e-05
-1.37168e-05
7.5125e-05
1.45404e-05
-1.29971e-05
8.21382e-05
-3.93468e-07
-7.66007e-06
0.000100489
-2.25172e-05
-8.76125e-06
0.000114657
-1.98609e-05
-1.04365e-05
0.00010833
-1.45339e-05
-3.28037e-06
0.000103361
-3.16847e-05
1.29882e-06
0.000115133
-3.91699e-05
-5.6508e-06
0.000117291
-2.68532e-05
-8.59849e-06
0.000103756
-4.48634e-05
2.0159e-06
0.000106468
-7.75319e-05
1.39253e-05
0.000119952
-6.04283e-05
1.34627e-05
0.000115057
-1.4667e-05
1.07968e-05
9.78679e-05
2.33899e-06
1.12448e-05
8.54996e-05
-3.20499e-06
1.34178e-05
8.4587e-05
-1.84105e-06
1.16691e-05
9.46252e-05
8.58503e-06
1.97804e-06
0.000107599
1.8828e-05
-1.1645e-05
0.000110443
1.84694e-05
-1.71796e-05
0.000100665
7.77596e-06
-1.40999e-05
8.67726e-05
2.09144e-06
-6.84186e-06
7.62816e-05
3.98762e-06
-1.12163e-06
7.09701e-05
8.93123e-06
1.9013e-06
7.01445e-05
1.28159e-05
3.40952e-06
7.4532e-05
-5.26382e-07
5.45777e-06
8.45823e-05
-2.71708e-05
6.57821e-06
9.45734e-05
-3.8285e-05
7.69858e-06
9.39294e-05
-2.26049e-05
1.12437e-05
8.38527e-05
1.76925e-06
1.20172e-05
7.52724e-05
1.83506e-05
7.23721e-06
7.32027e-05
2.224e-05
2.24941e-06
7.60303e-05
1.83021e-05
1.76491e-06
8.21683e-05
1.22545e-05
4.53776e-06
9.04774e-05
6.26102e-06
4.92836e-06
9.83905e-05
7.37342e-06
1.67694e-08
0.000105477
1.01186e-05
-1.02343e-05
0.000112283
1.69888e-05
-2.10602e-05
0.000114833
3.14436e-05
-2.59368e-05
0.000106646
5.13449e-05
-2.3701e-05
9.15501e-05
6.80579e-05
-1.8624e-05
6.32888e-05
-1.30583e-05
8.48287e-05
4.81356e-05
-9.29447e-06
7.77317e-05
3.58436e-05
-7.98779e-08
7.35287e-05
2.86692e-05
5.23453e-06
7.54619e-05
1.28714e-05
5.37356e-06
8.08014e-05
3.7992e-06
2.44854e-06
8.30395e-05
3.02107e-06
-8.73581e-07
8.04585e-05
1.10068e-05
-2.79871e-06
8.07599e-05
2.5571e-05
-2.70198e-06
8.58583e-05
2.85123e-05
-5.16786e-06
8.85466e-05
2.28359e-05
-1.17921e-05
8.63426e-05
2.1552e-05
-1.45254e-05
8.79332e-05
2.84347e-06
-1.09851e-05
0.000103263
-3.19818e-05
-8.02777e-06
0.000123561
-3.25459e-05
-8.52214e-06
0.000124159
-9.03797e-06
-4.1615e-06
0.000111785
-1.51768e-05
1.32726e-06
0.00011576
-3.79826e-05
-1.72554e-06
0.000128108
-3.55026e-05
-7.84327e-06
0.000122361
-4.0018e-05
-6.32014e-06
0.000113854
-7.35761e-05
4.62114e-06
0.000123734
-7.83311e-05
1.01725e-05
0.000132541
-3.61663e-05
7.90868e-06
0.000124374
-5.78741e-06
8.31062e-06
0.000108899
-6.66403e-06
1.32457e-05
9.97755e-05
-6.94587e-06
1.46667e-05
0.000100727
6.30605e-06
5.45206e-06
0.000106611
2.00563e-05
-8.07664e-06
0.000111287
1.47546e-05
-1.26942e-05
0.000110168
-7.57706e-07
-1.1383e-05
0.000101242
-1.20378e-06
-8.1335e-06
8.9554e-05
9.15552e-06
-4.60087e-06
8.13057e-05
1.77336e-05
-1.71325e-06
7.8007e-05
2.02985e-05
2.0944e-06
7.96431e-05
4.02525e-06
6.32905e-06
8.63998e-05
-2.83435e-05
9.44691e-06
9.71274e-05
-4.65028e-05
1.06677e-05
0.000102083
-3.13681e-05
1.32022e-05
9.62793e-05
-5.33747e-08
1.4921e-05
8.83237e-05
2.42809e-05
1.05512e-05
8.50253e-05
3.29812e-05
3.76711e-06
8.65022e-05
2.64482e-05
3.07658e-06
9.30979e-05
1.14554e-05
8.67609e-06
0.000103224
-1.78797e-06
1.04451e-05
0.000110881
-3.51728e-06
3.8014e-06
0.000115845
5.49629e-06
-9.77862e-06
0.000121205
2.06148e-05
-2.25773e-05
0.000122696
3.89507e-05
-2.64461e-05
0.000112851
6.28026e-05
-2.17949e-05
9.84326e-05
8.21944e-05
-1.62067e-05
7.39582e-05
-1.39822e-05
0.000107155
4.77666e-05
-1.66932e-05
0.0001035
3.40368e-05
-1.14189e-05
0.000100454
1.77971e-05
-2.27713e-06
0.000100942
-2.77671e-06
2.67819e-06
0.00010312
-5.59511e-06
3.04496e-06
0.000100726
6.69262e-06
-1.78477e-07
9.27332e-05
1.78484e-05
-2.48127e-06
9.05286e-05
2.33464e-05
-1.1642e-06
9.6957e-05
1.97384e-05
-5.65989e-07
0.000102889
1.9905e-05
-7.91413e-06
0.000103361
2.68466e-05
-1.50397e-05
0.000102944
1.10028e-05
-1.39509e-05
0.000112279
-3.38116e-05
-7.48096e-06
0.00013189
-4.56902e-05
-3.64306e-06
0.00013874
-1.23456e-05
-8.8868e-07
0.000125325
-8.80921e-07
1.96567e-06
0.000118855
-2.6579e-05
6.40988e-07
0.000131759
-4.09848e-05
-4.44012e-06
0.000139386
-4.27215e-05
-1.02598e-05
0.000130569
-6.2962e-05
-8.35933e-06
0.000130026
-7.80911e-05
-1.02274e-06
0.000144063
-5.5253e-05
1.37823e-06
0.000150142
-2.38139e-05
3.67477e-06
0.000138152
-1.39746e-05
1.03586e-05
0.000120078
-6.35883e-06
1.35563e-05
0.00010883
1.39863e-05
6.15224e-06
0.000106363
2.99462e-05
-3.76937e-06
0.000110028
1.37483e-05
-4.77058e-06
0.000114494
-1.53925e-05
-2.87003e-06
0.000112437
-1.51731e-05
-3.82629e-06
0.00010331
1.00389e-05
-6.09136e-06
9.46406e-05
2.92098e-05
-5.67738e-06
9.0898e-05
2.9027e-05
5.15126e-07
9.09198e-05
7.23381e-06
7.74027e-06
9.31006e-05
-2.8589e-05
1.33561e-05
0.000100553
-5.06605e-05
1.63591e-05
0.000108127
-3.75884e-05
1.81887e-05
0.00010692
-3.21029e-06
1.90261e-05
0.000100163
2.69624e-05
1.48381e-05
9.50715e-05
4.0832e-05
6.82317e-06
9.44585e-05
3.36254e-05
4.83118e-06
0.000101972
6.97553e-06
1.16058e-05
0.000116057
-1.65624e-05
1.55662e-05
0.000125869
-1.61992e-05
7.6753e-06
0.000128555
5.02538e-06
-8.09782e-06
0.000130077
2.93209e-05
-2.25084e-05
0.000128753
4.78688e-05
-2.63429e-05
0.000117876
7.05279e-05
-1.80026e-05
0.000106824
8.67701e-05
-1.07382e-05
7.35294e-05
-1.3717e-05
0.000127618
3.81168e-05
-9.54251e-06
0.00013203
2.67558e-05
-1.1168e-05
0.000134551
6.39445e-06
-7.96976e-06
0.000136868
-1.58232e-05
-3.51376e-06
0.000136085
-1.23024e-05
-9.73885e-07
0.000127251
1.1969e-05
-3.0958e-06
0.000112671
2.68557e-05
-6.10782e-06
0.000105625
2.11078e-05
-2.67043e-06
0.000110047
7.26033e-06
2.09618e-06
0.000117508
1.16165e-05
-2.39035e-06
0.000120649
2.9417e-05
-1.15754e-05
0.000119807
2.1721e-05
-1.55468e-05
0.000123405
-2.57711e-05
-1.35677e-05
0.00013771
-5.17802e-05
-7.87582e-06
0.000147083
-2.17227e-05
-3.92821e-07
0.000138782
2.52105e-06
2.99248e-06
0.000128763
-1.56488e-05
-3.63014e-09
0.000135389
-3.83862e-05
-5.85707e-06
0.000148786
-4.41353e-05
-1.40143e-05
0.000147678
-5.40621e-05
-1.6101e-05
0.000142305
-6.94286e-05
-9.39225e-06
0.000154365
-6.61242e-05
-5.36118e-06
0.000170454
-4.47583e-05
-3.36266e-06
0.000163804
-2.3408e-05
5.02918e-06
0.000138016
1.73135e-06
1.08981e-05
0.000117948
2.9304e-05
5.77415e-06
0.000118515
3.58365e-05
-2.70225e-07
0.000129803
4.89763e-06
2.23016e-06
0.000133661
-3.16228e-05
7.81834e-06
0.000127036
-2.7641e-05
5.23233e-06
0.000117394
1.0341e-05
-3.9156e-06
0.000112449
3.82469e-05
-9.30752e-06
0.000113326
3.31844e-05
-3.07491e-06
0.000113368
7.53727e-06
7.49204e-06
0.00010962
-2.81583e-05
1.68398e-05
0.00011013
-5.20566e-05
2.19569e-05
0.000115311
-4.03985e-05
2.47631e-05
0.000115057
-3.16521e-06
2.49628e-05
0.000109201
2.93208e-05
2.14877e-05
0.000104721
4.33e-05
1.51191e-05
0.000103365
3.62428e-05
1.03617e-05
0.00010935
3.08858e-06
1.11672e-05
0.000125998
-3.37005e-05
1.4667e-05
0.000139451
-3.31628e-05
8.01444e-06
0.000139568
5.78766e-06
-1.16626e-05
0.000133011
4.13987e-05
-2.78996e-05
0.000124876
5.95794e-05
-2.96639e-05
0.000113818
7.38894e-05
-1.80959e-05
0.000109051
7.8017e-05
-6.49396e-06
5.89355e-05
-4.65941e-06
0.000145235
2.45241e-05
1.48028e-06
0.000154608
1.42702e-05
1.03053e-06
0.000158379
-2.75798e-06
4.18556e-07
0.000162849
-2.20609e-05
6.88246e-07
0.00016735
-1.53972e-05
-7.52753e-07
0.000161185
1.60429e-05
-6.24359e-06
0.000144873
3.6008e-05
-1.32514e-05
0.000132653
2.16474e-05
-1.07306e-05
0.000130685
-2.98094e-06
4.1912e-08
0.000133521
3.56013e-06
1.57773e-06
0.00013577
3.06608e-05
-7.66155e-06
0.000137167
3.09691e-05
-1.55941e-05
0.000140013
-1.24895e-05
-1.63277e-05
0.00014851
-4.69462e-05
-9.75258e-06
0.000156687
-2.78105e-05
-9.16195e-07
0.000153406
1.30085e-06
3.28542e-06
0.000144579
-5.04326e-06
-5.7264e-07
0.000145631
-2.66094e-05
-8.9099e-06
0.000158364
-3.81869e-05
-1.66089e-05
0.000164156
-4.71937e-05
-1.67759e-05
0.000159945
-6.21074e-05
-9.68779e-06
0.000168185
-7.23211e-05
-6.99509e-06
0.000185729
-6.17757e-05
-9.08381e-06
0.000181641
-2.96904e-05
-2.30931e-06
0.000153333
1.37203e-05
7.81808e-06
0.000131554
4.503e-05
5.54245e-06
0.000137261
3.77476e-05
-1.68702e-06
0.000156135
-7.46863e-06
1.55282e-06
0.000160218
-4.37675e-05
1.00766e-05
0.000145775
-3.0538e-05
1.00328e-05
0.000130953
1.58586e-05
-4.15008e-07
0.000128408
4.43894e-05
-9.91988e-06
0.000135405
3.35604e-05
-9.66311e-06
0.00014019
4.79444e-06
6.51093e-07
0.000134559
-2.6392e-05
1.42689e-05
0.000126451
-4.75846e-05
2.35471e-05
0.000125526
-3.84537e-05
2.81225e-05
0.00012665
-3.47134e-06
3.09006e-05
0.000125514
2.77077e-05
3.0203e-05
0.000126232
4.00531e-05
2.32103e-05
0.000127363
3.44283e-05
1.43772e-05
0.000126146
5.80988e-06
1.20687e-05
0.000128785
-3.53872e-05
1.53658e-05
0.000133028
-4.1251e-05
9.9604e-06
0.000130995
5.68869e-06
-1.12826e-05
0.000126758
4.7807e-05
-2.77231e-05
0.000124691
6.43275e-05
-2.66944e-05
0.000121379
7.21797e-05
-1.54245e-05
0.00012163
6.83903e-05
-5.78837e-06
4.5091e-05
-3.25645e-07
0.000162858
1.13443e-05
-2.25322e-06
0.000173648
7.20215e-07
-5.52775e-07
0.000176141
-1.12782e-05
8.65446e-07
0.000177664
-2.4791e-05
5.19967e-06
0.0001847
-1.63395e-05
5.50081e-06
0.000188752
1.74725e-05
-4.00036e-06
0.00018264
3.99425e-05
-1.84392e-05
0.000171725
2.30118e-05
-2.16976e-05
0.00016204
-6.10791e-06
-8.07387e-06
0.000155533
5.60953e-07
1.63441e-06
0.000153109
3.25573e-05
-5.88885e-06
0.000153917
3.99766e-05
-1.70936e-05
0.00015469
5.13935e-06
-1.7368e-05
0.000157729
-3.21967e-05
-9.01158e-06
0.000164648
-2.66768e-05
-1.84569e-06
0.000167648
-6.0226e-07
1.12366e-06
0.000163977
3.9187e-06
-8.34304e-07
0.000163591
-1.08947e-05
-6.56135e-06
0.000175618
-3.03167e-05
-1.183e-05
0.000187124
-4.60131e-05
-1.14059e-05
0.000184664
-5.8527e-05
-4.43405e-06
0.000186083
-7.56365e-05
-1.8712e-06
0.000197842
-7.40271e-05
-7.63322e-06
0.000193108
-3.29363e-05
-4.65607e-06
0.000167665
2.37167e-05
6.47765e-06
0.000150828
5.35806e-05
4.69013e-06
0.000157926
3.61237e-05
-5.4747e-06
0.000175183
-1.56385e-05
-1.17576e-06
0.000180617
-5.11823e-05
9.29512e-06
0.000166333
-3.00926e-05
1.21891e-05
0.000148014
2.34916e-05
4.17009e-06
0.000142101
5.34462e-05
-7.01144e-06
0.000150498
3.8418e-05
-1.57299e-05
0.000163618
4.37259e-06
-1.53736e-05
0.000165213
-2.10163e-05
-2.79127e-06
0.000152639
-3.49606e-05
1.59783e-05
0.000140652
-2.59313e-05
2.71963e-05
0.000139827
-1.05899e-06
3.32987e-05
0.000148465
1.69854e-05
3.54713e-05
0.000160102
2.36953e-05
2.91065e-05
0.00016418
2.5045e-05
1.79057e-05
0.000155058
9.76366e-06
1.28604e-05
0.000139626
-2.34428e-05
1.55831e-05
0.000127381
-3.10678e-05
1.37996e-05
0.000121575
7.73055e-06
7.25955e-07
0.000123999
4.33219e-05
-1.31487e-05
0.000130196
5.38217e-05
-1.56183e-05
0.000134195
5.89487e-05
-1.24247e-05
0.00013848
5.43781e-05
-9.06735e-06
3.25477e-05
-5.98526e-06
0.000175836
-1.50052e-06
-4.80437e-06
0.000184639
-1.1175e-05
-6.34058e-06
0.000187875
-2.01652e-05
-8.14445e-06
0.000188362
-2.83847e-05
6.00107e-07
0.000193585
-1.66882e-05
1.02949e-05
0.000203985
1.70863e-05
1.95656e-06
0.000212166
3.80233e-05
-1.94544e-05
0.000210842
2.15194e-05
-2.9224e-05
0.000198392
-3.80975e-06
-1.60075e-05
0.000182489
4.97973e-06
-2.42079e-06
0.000172825
3.83866e-05
-8.68227e-06
0.000170768
5.0076e-05
-1.81869e-05
0.000170239
2.37653e-05
-1.37195e-05
0.000169957
-1.19219e-05
-4.98349e-06
0.000174977
-1.71411e-05
-1.95533e-06
0.000182012
4.59314e-07
-1.85557e-06
0.000184243
9.89245e-06
-2.90967e-06
0.00018461
2.86416e-06
-5.72277e-06
0.000194098
-2.33589e-05
-8.85763e-06
0.00020854
-5.15631e-05
-9.83473e-06
0.000209852
-6.14842e-05
-5.32654e-06
0.000203793
-7.38894e-05
-1.34176e-06
0.000206028
-7.95168e-05
-4.36219e-06
0.000202314
-3.73949e-05
-3.0366e-06
0.00018412
2.70178e-05
6.25508e-06
0.000171197
5.61718e-05
4.16264e-06
0.000176085
3.48063e-05
-9.06493e-06
0.000190286
-2.00301e-05
-7.03192e-06
0.000198363
-5.70527e-05
6.99998e-06
0.000188831
-3.14307e-05
1.35585e-05
0.000169149
2.99299e-05
1.02019e-05
0.000156912
6.66308e-05
1.67443e-09
0.000163813
4.73921e-05
-1.5193e-05
0.00018608
2.67011e-06
-2.63562e-05
0.000200711
-2.12977e-05
-2.19069e-05
0.000190758
-2.03923e-05
-2.9051e-06
0.000165374
-5.11845e-06
2.01298e-05
0.000148326
1.25105e-05
3.34495e-05
0.000152718
8.63299e-06
4.07352e-05
0.000173694
-3.4259e-06
3.81471e-05
0.000189223
1.29192e-06
2.80962e-05
0.000181369
8.02775e-06
1.99727e-05
0.000157107
-7.27612e-06
1.74152e-05
0.000136964
-1.53116e-05
1.55175e-05
0.000131947
9.20286e-06
6.51043e-06
0.000139789
3.19844e-05
-6.72633e-06
0.000148738
3.40825e-05
-1.36419e-05
0.000153866
3.79372e-05
-1.63165e-05
0.000158065
3.59767e-05
-1.59354e-05
1.78841e-05
-1.06259e-05
0.000199288
-1.24096e-05
-3.11372e-06
0.000202407
-1.80237e-05
-5.26675e-06
0.000203231
-2.34859e-05
-1.24593e-05
0.000201538
-2.93781e-05
-3.41802e-06
0.000202729
-1.52518e-05
1.29391e-05
0.000213144
1.73735e-05
9.55402e-06
0.000229747
3.38725e-05
-1.53351e-05
0.00023823
1.64613e-05
-2.87456e-05
0.000228932
-2.02745e-06
-1.82173e-05
0.000208995
1.37384e-05
-8.26058e-06
0.000193507
4.91151e-05
-1.38625e-05
0.000188253
6.25471e-05
-1.71884e-05
0.000186777
4.16983e-05
-8.68752e-06
0.000184803
9.68664e-06
-2.34582e-06
0.000187683
-1.92171e-06
-3.01546e-06
0.000195942
5.65898e-06
-5.34284e-06
0.00020256
1.33968e-05
-7.2634e-06
0.000206223
1.19039e-05
-8.32092e-06
0.000213931
-1.43388e-05
-7.94792e-06
0.000226158
-5.45924e-05
-7.08281e-06
0.000229985
-6.82332e-05
-3.47239e-06
0.000220221
-6.74028e-05
-8.94343e-07
0.000210331
-7.19808e-05
-3.85157e-06
0.000205806
-4.19252e-05
-3.48963e-06
0.00019924
1.77963e-05
4.39006e-06
0.000192822
5.01233e-05
2.63743e-06
0.000195923
3.16447e-05
-1.27104e-05
0.000207916
-2.37514e-05
-1.57877e-05
0.000217783
-6.0369e-05
1.66059e-06
0.000210973
-3.02793e-05
1.61088e-05
0.000189736
3.77627e-05
1.44546e-05
0.000173743
7.74133e-05
1.6375e-06
0.000179355
5.19141e-05
-1.3055e-05
0.000205974
-6.62459e-06
-2.3199e-05
0.00023114
-3.42768e-05
-2.60894e-05
0.000226401
-1.4434e-05
-1.34353e-05
0.000192959
1.77467e-05
1.2279e-05
0.000163409
2.95471e-05
3.38141e-05
0.000158412
8.33569e-06
4.61031e-05
0.000177268
-2.42523e-05
4.69213e-05
0.000200938
-3.06008e-05
4.09173e-05
0.000203705
-1.00213e-05
3.23162e-05
0.000182412
6.97745e-07
2.28448e-05
0.000159398
9.35273e-07
1.49424e-05
0.000155579
8.20686e-06
5.28382e-06
0.000170731
1.17741e-05
-8.72299e-06
0.000186475
2.74637e-06
-1.76018e-05
0.000192981
8.30415e-06
-2.18764e-05
0.000194233
1.43631e-05
-2.23658e-05
3.07653e-06
-1.43462e-05
0.000241062
-1.6349e-05
-9.25378e-06
0.000233831
-1.96626e-05
-4.79033e-06
0.000227221
-1.99725e-05
-1.27216e-05
0.000220736
-2.23518e-05
-7.57937e-06
0.000218134
-9.16582e-06
1.17959e-05
0.000227099
1.65612e-05
1.93286e-05
0.000246282
2.31732e-05
3.01674e-06
0.000259104
4.81747e-06
-1.28968e-05
0.000252353
-5.31455e-06
-1.15807e-05
0.000232705
1.93707e-05
-9.20148e-06
0.000216071
5.76877e-05
-1.55086e-05
0.000208949
7.13768e-05
-1.53618e-05
0.000206217
5.31123e-05
-5.5975e-06
0.000204693
2.5459e-05
-3.95887e-07
0.000207458
1.17907e-05
-3.15854e-06
0.000214869
1.07139e-05
-6.07361e-06
0.000222468
1.15198e-05
-4.0527e-06
0.000229795
9.34675e-06
1.72595e-06
0.000238947
-1.19857e-05
6.52464e-06
0.00024618
-5.20723e-05
5.82243e-06
0.000246563
-7.23871e-05
6.13754e-06
0.000237711
-6.4422e-05
6.94907e-06
0.00022218
-5.72069e-05
-1.86778e-07
0.000211056
-3.87022e-05
-4.86382e-06
0.000209423
4.13579e-06
-1.64473e-06
0.000211926
3.21167e-05
-1.76154e-06
0.000219593
1.71705e-05
-1.1613e-05
0.000230826
-3.11651e-05
-1.67541e-05
0.000239532
-6.13105e-05
-1.47304e-06
0.000235987
-2.71361e-05
1.89765e-05
0.000220572
4.25578e-05
1.77529e-05
0.000209243
7.76065e-05
1.69402e-06
0.000212327
4.68377e-05
-6.11913e-06
0.000229823
-1.68202e-05
-6.83119e-06
0.000252141
-4.61032e-05
-1.1284e-05
0.000254663
-1.56483e-05
-9.46038e-06
0.000231678
2.86222e-05
7.17202e-06
0.000209489
3.61922e-05
2.60115e-05
0.000201802
1.23511e-05
3.66814e-05
0.000207059
-2.16114e-05
3.82934e-05
0.000219801
-3.80187e-05
3.5168e-05
0.000227518
-2.73213e-05
3.17751e-05
0.000220069
-9.43994e-06
2.52762e-05
0.00020665
1.26676e-06
1.62876e-05
0.000204285
7.18412e-06
6.48872e-06
0.000216696
3.13783e-06
-4.99479e-06
0.000234055
-1.4717e-05
-1.4961e-05
0.000247082
-2.09094e-05
-2.21631e-05
0.000251585
-1.00963e-05
-2.87776e-05
-7.5927e-06
-2.44307e-05
0.000282394