/*--------------------------------*- C++ -*----------------------------------*\
| =========                 |                                                 |
| \\      /  F ield         | OpenFOAM: The Open Source CFD Toolbox           |
|  \\    /   O peration     | Version:  2.3.0                                 |
|   \\  /    A nd           | Web:      www.OpenFOAM.org                      |
|    \\/     M anipulation  |                                                 |
\*---------------------------------------------------------------------------*/
FoamFile
{
    version     2.0;
    format      ascii;
    class       surfaceScalarField;
    location    "500";
    object      phi_0;
}
// * * * * * * * * * * * * * * * * * * * * * * * * * * * * * * * * * * * * * //

dimensions      [0 3 -1 0 0 0 0];

internalField   nonuniform List<scalar> 
263700
(
4.29737e-06
-9.25239e-08
-2.38936e-07
3.93973e-06
1.55206e-06
-9.14309e-07
3.4536e-06
2.13979e-06
-1.38882e-06
3.53225e-06
1.35758e-06
-1.74314e-06
4.20325e-06
3.42848e-07
-1.42248e-06
4.92194e-06
8.38772e-08
-5.2798e-07
5.10754e-06
7.29642e-07
3.01909e-08
5.26886e-06
1.16321e-06
2.11259e-07
5.42457e-06
1.60206e-06
2.97214e-07
5.55359e-06
2.26832e-06
6.27615e-08
6.17795e-06
2.82889e-06
-1.3291e-06
6.76829e-06
3.17843e-06
-3.36622e-06
7.63286e-06
1.46487e-06
-4.09394e-06
9.18735e-06
-2.52979e-06
-2.39855e-06
1.01511e-05
-3.98709e-06
-1.49222e-07
9.33515e-06
-2.4768e-06
1.61557e-06
7.32734e-06
-1.11378e-06
2.95358e-06
5.63457e-06
-1.3194e-06
3.95449e-06
4.90298e-06
-2.35099e-06
3.97719e-06
4.92963e-06
-2.7911e-06
3.00759e-06
4.87936e-06
-1.9376e-06
1.54806e-06
4.42983e-06
-2.16574e-07
1.19654e-07
3.99968e-06
6.29811e-07
-5.32262e-07
3.85414e-06
1.00499e-06
-9.57728e-07
3.75285e-06
1.72967e-06
-1.24829e-06
3.73131e-06
2.09088e-06
-1.47502e-06
3.85132e-06
1.45529e-06
-1.38655e-06
4.27882e-06
2.2335e-07
-9.5473e-07
4.82273e-06
-6.41192e-07
-3.01208e-07
4.97047e-06
-3.99747e-07
3.81072e-07
4.58529e-06
2.57512e-07
8.28781e-07
4.33116e-06
2.71416e-07
7.6644e-07
4.39811e-06
-1.88988e-07
4.44725e-07
4.4028e-06
-3.75911e-07
1.37866e-07
4.23542e-06
-4.45653e-07
-1.57865e-07
4.29445e-06
-1.03061e-06
-2.5549e-07
4.45724e-06
-9.92082e-07
-1.79277e-07
4.27996e-06
5.23245e-08
-1.22786e-07
3.89775e-06
9.01385e-07
-3.74104e-07
3.79221e-06
1.20368e-06
-9.52306e-07
3.97343e-06
1.33144e-06
-1.42086e-06
3.92009e-06
2.19589e-06
-1.96918e-06
3.43584e-06
3.57473e-06
-2.93349e-06
2.79816e-06
3.92172e-06
-3.29434e-06
2.56907e-06
2.6785e-06
-2.7042e-06
2.96795e-06
6.87069e-07
-1.77679e-06
3.49146e-06
-1.01653e-06
-8.92165e-07
3.68269e-06
-1.50683e-06
-1.85563e-07
3.77274e-06
-1.62306e-06
4.21846e-07
-1.28806e-06
3.48193e-07
1.23271e-05
5.23223e-07
-2.24582e-07
1.18024e-05
5.35839e-06
-2.15272e-06
1.14018e-05
6.67767e-06
-3.72139e-06
1.20414e-05
4.35257e-06
-4.85224e-06
1.39233e-05
1.17414e-06
-4.20953e-06
1.5973e-05
9.53539e-08
-1.82797e-06
1.69004e-05
1.84926e-06
1.36144e-07
1.73545e-05
3.40653e-06
8.66811e-07
1.73778e-05
4.75473e-06
1.19567e-06
1.70852e-05
7.25279e-06
1.03837e-06
1.79017e-05
9.04516e-06
-1.6135e-06
1.99073e-05
8.9875e-06
-6.62694e-06
2.3848e-05
2.48472e-06
-8.57203e-06
2.95405e-05
-9.58723e-06
-5.13441e-06
3.4003e-05
-1.44873e-05
-7.89996e-07
3.44055e-05
-1.07514e-05
2.82209e-06
3.02684e-05
-5.42383e-06
6.24544e-06
2.40296e-05
-3.4935e-06
8.84748e-06
1.89055e-05
-4.91258e-06
8.92789e-06
1.63739e-05
-6.35956e-06
6.49107e-06
1.51268e-05
-4.44556e-06
2.88022e-06
1.3893e-05
2.56315e-08
-3.08639e-07
1.28317e-05
2.75629e-06
-2.13045e-06
1.2291e-05
4.11088e-06
-3.0266e-06
1.22277e-05
5.68407e-06
-3.32046e-06
1.2637e-05
5.79689e-06
-3.22929e-06
1.32365e-05
3.33089e-06
-2.45244e-06
1.40265e-05
3.50396e-08
-1.19121e-06
1.48745e-05
-1.89264e-06
1.8589e-07
1.53366e-05
-8.15337e-07
1.6015e-06
1.52701e-05
1.07933e-06
2.64589e-06
1.51036e-05
1.43575e-06
2.67523e-06
1.47569e-05
1.59991e-07
2.06969e-06
1.41605e-05
-9.95465e-07
1.1659e-06
1.36876e-05
-1.5704e-06
1.47148e-07
1.36757e-05
-2.92553e-06
-6.01547e-07
1.36115e-05
-2.2947e-06
-9.16153e-07
1.30989e-05
8.05244e-07
-1.13732e-06
1.26901e-05
3.27861e-06
-1.90095e-06
1.29416e-05
4.01896e-06
-3.18873e-06
1.34341e-05
4.55537e-06
-4.36079e-06
1.32992e-05
7.40581e-06
-5.8825e-06
1.24644e-05
1.1564e-05
-7.94964e-06
1.15886e-05
1.26331e-05
-8.64045e-06
1.14411e-05
9.08562e-06
-7.28868e-06
1.19723e-05
3.25995e-06
-4.85431e-06
1.22471e-05
-1.54784e-06
-2.34336e-06
1.20092e-05
-3.1803e-06
-5.11716e-07
1.19046e-05
-3.89022e-06
8.98971e-07
-2.98767e-06
9.31262e-07
2.06906e-05
1.06613e-06
7.46933e-07
2.03662e-05
9.6651e-06
-1.85076e-06
2.05011e-05
1.23077e-05
-4.63313e-06
2.14679e-05
8.58704e-06
-7.09986e-06
2.36726e-05
2.95542e-06
-7.54375e-06
2.67515e-05
-2.98461e-07
-4.83669e-06
2.86382e-05
2.53195e-06
-1.2851e-06
2.98214e-05
6.11081e-06
7.09874e-07
3.09112e-05
6.87042e-06
1.79349e-06
3.02785e-05
1.09657e-05
2.99525e-06
2.97656e-05
1.61017e-05
1.6348e-06
3.231e-05
1.57596e-05
-4.5487e-06
3.85967e-05
3.86098e-06
-8.6116e-06
4.64765e-05
-1.59199e-05
-5.47888e-06
5.33103e-05
-2.53253e-05
-1.03155e-06
5.91147e-05
-2.38088e-05
1.69368e-06
6.11897e-05
-1.75825e-05
5.1284e-06
5.48385e-05
-9.30058e-06
9.84318e-06
4.26367e-05
-5.0161e-06
1.24284e-05
3.26057e-05
-6.95513e-06
1.08535e-05
2.77622e-05
-6.6307e-06
6.16555e-06
2.56606e-05
-3.27514e-07
7.25032e-07
2.40679e-05
5.07712e-06
-2.84812e-06
2.28378e-05
8.69258e-06
-5.05205e-06
2.25151e-05
1.15537e-05
-5.98823e-06
2.32073e-05
1.10631e-05
-5.88991e-06
2.40414e-05
6.2109e-06
-4.28038e-06
2.463e-05
3.90566e-08
-1.74248e-06
2.52951e-05
-3.28618e-06
5.40087e-07
2.62095e-05
-1.63244e-06
2.82177e-06
2.72847e-05
1.61482e-06
4.65499e-06
2.8271e-05
3.41398e-06
5.07198e-06
2.79946e-05
2.32668e-06
4.43014e-06
2.63628e-05
-2.41196e-07
3.39727e-06
2.47832e-05
-2.73323e-06
2.07482e-06
2.41216e-05
-5.56073e-06
3.86304e-07
2.37055e-05
-4.6587e-06
-8.32621e-07
2.30076e-05
1.02738e-06
-1.73161e-06
2.27473e-05
6.07674e-06
-2.88945e-06
2.3632e-05
7.45735e-06
-4.38539e-06
2.50797e-05
7.776e-06
-5.72667e-06
2.58798e-05
1.20491e-05
-7.49158e-06
2.57065e-05
1.97704e-05
-1.04256e-05
2.52027e-05
2.36834e-05
-1.28801e-05
2.50898e-05
1.98462e-05
-1.30818e-05
2.48621e-05
1.08649e-05
-1.04528e-05
2.36617e-05
2.14101e-06
-6.03545e-06
2.20693e-05
-2.18448e-06
-2.12527e-06
2.10994e-05
-4.66676e-06
5.36032e-07
-4.34599e-06
1.6119e-06
2.92641e-05
1.96077e-06
1.83246e-06
2.87298e-05
1.31568e-05
-2.32385e-08
2.9416e-05
1.77754e-05
-3.6567e-06
3.11695e-05
1.26338e-05
-7.25246e-06
3.34189e-05
5.11375e-06
-9.54118e-06
3.63721e-05
8.4539e-08
-8.60587e-06
3.85057e-05
3.63206e-06
-4.87957e-06
4.00284e-05
9.95378e-06
-1.4202e-06
4.32134e-05
8.4998e-06
6.98468e-07
4.49105e-05
9.84276e-06
3.84515e-06
4.34107e-05
2.01023e-05
5.20131e-06
4.44572e-05
2.17109e-05
2.15937e-06
5.12606e-05
4.10842e-06
-1.52197e-06
6.0238e-05
-2.14906e-05
-1.17661e-06
6.60918e-05
-3.09321e-05
6.04439e-07
6.91257e-05
-2.89885e-05
1.27788e-06
7.60084e-05
-3.11e-05
3.01116e-06
8.24708e-05
-2.73327e-05
7.18301e-06
7.52678e-05
-1.24761e-05
1.2026e-05
5.76396e-05
-4.99292e-06
1.40341e-05
4.4083e-05
-5.40025e-06
1.10981e-05
3.90369e-05
-1.55079e-06
5.08538e-06
3.77753e-05
4.78041e-06
-8.03188e-07
3.67971e-05
1.18319e-05
-5.48217e-06
3.60784e-05
1.85824e-05
-8.78793e-06
3.63088e-05
1.91549e-05
-1.02717e-05
3.6619e-05
1.16346e-05
-8.60159e-06
3.62506e-05
1.34958e-06
-4.28462e-06
3.58254e-05
-4.41117e-06
1.4609e-07
3.62861e-05
-2.75373e-06
3.5716e-06
3.79384e-05
1.13117e-06
6.2505e-06
4.0702e-05
4.33835e-06
7.19911e-06
4.27594e-05
4.41558e-06
6.70148e-06
4.20813e-05
1.05909e-06
5.91097e-06
3.92064e-05
-3.22929e-06
5.1503e-06
3.63422e-05
-8.12305e-06
3.8144e-06
3.43774e-05
-8.1126e-06
1.51385e-06
3.31041e-05
-7.62717e-07
-8.9032e-07
3.27161e-05
7.71142e-06
-2.83732e-06
3.38149e-05
1.11291e-05
-4.21886e-06
3.61043e-05
1.08032e-05
-4.9755e-06
3.81927e-05
1.41475e-05
-6.17423e-06
3.95935e-05
2.35185e-05
-8.93866e-06
4.13582e-05
2.99153e-05
-1.21837e-05
4.36925e-05
2.78967e-05
-1.51503e-05
4.37165e-05
2.10526e-05
-1.62365e-05
3.98565e-05
1.26033e-05
-1.27134e-05
3.50477e-05
5.51327e-06
-6.63864e-06
3.19383e-05
-1.5635e-07
-1.75221e-06
-3.15802e-06
1.26725e-06
3.84272e-05
5.49789e-06
1.82994e-06
3.6848e-05
1.64079e-05
1.47667e-06
3.70004e-05
2.30024e-05
-1.76507e-06
3.91269e-05
1.62401e-05
-5.64212e-06
4.23151e-05
6.04605e-06
-8.74502e-06
4.56158e-05
7.25356e-07
-1.01991e-05
4.73735e-05
6.50356e-06
-8.41782e-06
4.8219e-05
1.61367e-05
-4.92537e-06
5.22044e-05
1.22799e-05
-3.1004e-06
5.74429e-05
6.30049e-06
9.05474e-07
5.92509e-05
1.78427e-05
5.55459e-06
6.17007e-05
2.24151e-05
7.42203e-06
6.65438e-05
3.32741e-06
6.29447e-06
7.18259e-05
-2.52136e-05
4.70781e-06
7.845e-05
-3.73814e-05
3.03288e-06
8.03757e-05
-2.89725e-05
3.92384e-08
7.84802e-05
-3.04059e-05
5.62195e-07
8.66598e-05
-4.37997e-05
5.1809e-06
9.60335e-05
-3.54709e-05
9.5941e-06
8.63863e-05
-1.32043e-05
1.32184e-05
6.59941e-05
-2.83308e-06
1.39873e-05
5.33072e-05
-1.54575e-07
1.02136e-05
5.06529e-05
2.58358e-06
4.11446e-06
5.20265e-05
9.71256e-06
-2.4203e-06
5.39019e-05
2.14118e-05
-8.98139e-06
5.48896e-05
2.72989e-05
-1.41761e-05
5.37068e-05
2.04789e-05
-1.48418e-05
5.06033e-05
6.03538e-06
-9.76516e-06
4.75517e-05
-4.10263e-06
-2.43905e-06
4.61938e-05
-3.72596e-06
3.19315e-06
4.68977e-05
9.98833e-09
6.82332e-06
4.97824e-05
3.99978e-06
8.05981e-06
5.43432e-05
4.79485e-06
7.6369e-06
5.81451e-05
-2.87453e-07
6.94965e-06
5.77191e-05
-6.14974e-06
7.21464e-06
5.29312e-05
-1.03682e-05
7.6368e-06
4.71405e-05
-1.02164e-05
5.97911e-06
4.32821e-05
-2.88092e-06
1.81842e-06
4.19083e-05
7.19796e-06
-1.76477e-06
4.27486e-05
1.34445e-05
-3.1557e-06
4.54749e-05
1.31341e-05
-2.5612e-06
4.88699e-05
1.3389e-05
-2.54554e-06
5.16774e-05
2.1654e-05
-4.99984e-06
5.50034e-05
2.96028e-05
-8.70394e-06
6.07345e-05
2.79018e-05
-1.25881e-05
6.50129e-05
2.38711e-05
-1.64937e-05
6.1547e-05
2.27209e-05
-1.73163e-05
5.27663e-05
1.96065e-05
-1.29074e-05
4.54789e-05
1.25141e-05
-6.45983e-06
4.55804e-06
-1.12549e-06
4.85846e-05
1.38698e-05
4.57913e-07
4.54201e-05
2.06469e-05
2.40562e-06
4.41695e-05
2.83074e-05
-8.12628e-08
4.55057e-05
2.03087e-05
-3.954e-06
4.92263e-05
6.69316e-06
-6.41308e-06
5.37304e-05
7.10638e-08
-8.79026e-06
5.58589e-05
9.11988e-06
-9.67243e-06
5.63623e-05
2.28672e-05
-6.92305e-06
5.89788e-05
1.86627e-05
-6.75958e-06
6.39313e-05
7.41744e-06
-6.72297e-06
7.01614e-05
1.28864e-05
-9.71757e-08
7.99187e-05
1.43123e-05
6.7535e-06
8.71277e-05
-4.86838e-07
6.84157e-06
8.44585e-05
-2.01113e-05
4.53324e-06
8.57163e-05
-3.89353e-05
3.95342e-06
9.55692e-05
-3.66362e-05
-9.42799e-07
9.39029e-05
-2.59598e-05
-3.19433e-06
8.7538e-05
-4.06943e-05
3.09316e-06
9.76757e-05
-5.6153e-05
9.55775e-06
0.00010486
-3.70602e-05
1.15788e-05
9.00684e-05
-8.61361e-06
1.32759e-05
7.06348e-05
2.34674e-06
1.28355e-05
6.19698e-05
1.95981e-06
9.36304e-06
6.29211e-05
4.53433e-06
3.61761e-06
6.93281e-05
1.64444e-05
-4.41794e-06
7.64922e-05
2.78319e-05
-1.35205e-05
7.731e-05
2.76517e-05
-1.88942e-05
7.05594e-05
1.44287e-05
-1.61114e-05
6.23844e-05
-3.26575e-07
-7.40374e-06
5.72359e-05
-3.31551e-06
9.6572e-07
5.53817e-05
-5.33754e-07
5.83453e-06
5.64187e-05
4.03652e-06
7.24754e-06
6.0799e-05
5.19718e-06
6.94128e-06
6.84508e-05
-3.55778e-06
6.16696e-06
7.42686e-05
-1.37044e-05
6.63998e-06
7.20671e-05
-1.56854e-05
9.16065e-06
6.32779e-05
-1.06681e-05
9.80714e-06
5.50394e-05
-1.97202e-06
5.63744e-06
5.13057e-05
7.68345e-06
3.81752e-08
5.18828e-05
1.34864e-05
-1.46489e-06
5.52783e-05
1.35568e-05
-1.74975e-07
5.99112e-05
1.18316e-05
1.25814e-07
6.41819e-05
1.67616e-05
-1.90823e-06
6.85394e-05
2.49186e-05
-6.02164e-06
7.55429e-05
2.35639e-05
-1.11086e-05
8.31875e-05
2.07021e-05
-1.61002e-05
8.32839e-05
2.67308e-05
-1.89206e-05
7.36151e-05
3.30718e-05
-1.73712e-05
6.19079e-05
3.09983e-05
-1.20362e-05
2.06791e-05
-5.63354e-06
5.95215e-05
2.66211e-05
-1.61362e-06
5.43487e-05
2.66943e-05
3.00377e-06
5.16974e-05
3.25877e-05
1.62262e-06
5.26391e-05
2.35516e-05
-2.31561e-06
5.64829e-05
8.58962e-06
-4.25787e-06
6.11911e-05
-5.30982e-07
-6.18413e-06
6.37325e-05
8.74345e-06
-8.56555e-06
6.48738e-05
2.69977e-05
-6.69944e-06
6.60439e-05
2.56553e-05
-8.09079e-06
6.74625e-05
1.25025e-05
-1.27667e-05
7.2483e-05
1.05142e-05
-8.33724e-06
8.55066e-05
2.84463e-06
1.99574e-07
0.00010065
-1.03019e-05
-6.19664e-07
0.000101237
-1.41438e-05
-3.07689e-06
9.31425e-05
-2.82925e-05
1.46156e-06
0.000100487
-4.11825e-05
-2.88144e-07
0.000110121
-3.0962e-05
-6.60487e-06
9.98432e-05
-2.91579e-05
-2.91536e-06
9.56141e-05
-5.87326e-05
9.99291e-06
0.000109539
-6.41017e-05
1.34364e-05
0.000109682
-2.81351e-05
1.2302e-05
9.14036e-05
6.29599e-07
1.23615e-05
7.58583e-05
2.8732e-06
1.20067e-05
7.15929e-05
1.47077e-08
9.76793e-06
7.74927e-05
7.29403e-06
3.76983e-06
9.04053e-05
1.95997e-05
-7.15563e-06
9.90101e-05
2.58305e-05
-1.71227e-05
9.37676e-05
2.01155e-05
-1.89377e-05
8.08765e-05
5.54989e-06
-1.19759e-05
7.02483e-05
-8.70618e-07
-2.86865e-06
6.44754e-05
9.10387e-07
3.18103e-06
6.27406e-05
5.68958e-06
4.97513e-06
6.50009e-05
7.46134e-06
5.27371e-06
7.26821e-05
-5.13681e-06
5.30776e-06
8.30855e-05
-2.27847e-05
5.44993e-06
8.7089e-05
-2.5475e-05
8.17866e-06
7.98066e-05
-1.33616e-05
1.13044e-05
6.87617e-05
1.40776e-06
8.94944e-06
6.23658e-05
1.19596e-05
3.0928e-06
6.212e-05
1.5263e-05
3.14177e-07
6.59322e-05
1.38297e-05
1.4488e-06
7.18154e-05
1.10949e-05
2.05464e-06
7.80013e-05
1.15048e-05
7.36345e-08
8.39927e-05
1.7841e-05
-4.32489e-06
9.12643e-05
1.7988e-05
-1.14288e-05
9.9197e-05
1.84362e-05
-1.86942e-05
0.000101445
2.91299e-05
-2.20086e-05
9.26968e-05
4.35632e-05
-2.06757e-05
7.85244e-05
5.0757e-05
-1.64051e-05
4.23477e-05
-1.01885e-05
7.06628e-05
3.86138e-05
-3.50804e-06
6.4116e-05
3.25958e-05
3.49116e-06
6.05498e-05
3.33196e-05
4.46547e-06
6.20366e-05
2.23072e-05
1.19893e-06
6.65497e-05
9.33474e-06
-1.53799e-06
7.0353e-05
1.10172e-06
-3.51276e-06
7.15815e-05
8.64883e-06
-5.58042e-06
7.311e-05
2.77031e-05
-4.96112e-06
7.51535e-05
3.01577e-05
-7.85462e-06
7.5188e-05
1.8933e-05
-1.40611e-05
7.54256e-05
1.34811e-05
-1.27574e-05
8.36706e-05
-2.51218e-06
-7.43945e-06
0.000102735
-2.32452e-05
-8.86397e-06
0.00011511
-1.8555e-05
-9.86324e-06
0.000107282
-1.55489e-05
-2.26222e-06
0.000104007
-3.39467e-05
1.10643e-06
0.000116445
-3.85443e-05
-6.46878e-06
0.000116143
-2.73115e-05
-8.17515e-06
0.00010279
-4.99673e-05
3.89152e-06
0.000108126
-7.94297e-05
1.45287e-05
0.000120776
-5.58806e-05
1.31135e-05
0.000113472
-1.05506e-05
1.07024e-05
9.59569e-05
2.73629e-06
1.14775e-05
8.47391e-05
-3.50234e-06
1.34679e-05
8.51344e-05
-7.41413e-07
1.08958e-05
9.59229e-05
1.03182e-05
2.27077e-07
0.000108299
1.95521e-05
-1.26917e-05
0.000109701
1.74537e-05
-1.71458e-05
9.90382e-05
6.73376e-06
-1.3388e-05
8.52874e-05
2.3623e-06
-6.11586e-06
7.54021e-05
5.04011e-06
-8.09548e-07
7.0623e-05
9.85781e-06
1.97159e-06
7.02869e-05
1.22024e-05
3.57135e-06
7.54033e-05
-3.14785e-06
5.62943e-06
8.5924e-05
-2.89031e-05
6.54478e-06
9.52113e-05
-3.70956e-05
7.90349e-06
9.32917e-05
-2.00809e-05
1.15777e-05
8.28924e-05
3.93396e-06
1.17654e-05
7.48395e-05
1.96608e-05
6.58521e-06
7.32983e-05
2.25803e-05
1.86479e-06
7.64942e-05
1.777e-05
1.89297e-06
8.29385e-05
1.13208e-05
4.76378e-06
9.13534e-05
5.72802e-06
4.61745e-06
9.92348e-05
7.64762e-06
-1.17567e-06
0.000106192
1.08282e-05
-1.17822e-05
0.000112442
1.91546e-05
-2.21854e-05
0.000113731
3.46906e-05
-2.60042e-05
0.000104397
5.41122e-05
-2.31081e-05
8.94258e-05
6.86886e-05
-1.79204e-05
6.11052e-05
-1.21818e-05
8.43717e-05
4.49332e-05
-8.50712e-06
7.74912e-05
3.45125e-05
5.96591e-07
7.37707e-05
2.75374e-05
5.51909e-06
7.60504e-05
1.21885e-05
5.06471e-06
8.12313e-05
4.11681e-06
1.99031e-06
8.29769e-05
3.83363e-06
-1.10938e-06
8.03372e-05
1.21094e-05
-2.85249e-06
8.10613e-05
2.62609e-05
-2.76815e-06
8.63291e-05
2.82897e-05
-5.73045e-06
8.85684e-05
2.26076e-05
-1.23166e-05
8.6247e-05
2.0592e-05
-1.45137e-05
8.88931e-05
-2.98657e-07
-1.05396e-05
0.000105688
-3.41195e-05
-7.78723e-06
0.000125017
-3.02759e-05
-8.12839e-06
0.000123115
-7.87492e-06
-3.3273e-06
0.000111216
-1.78844e-05
1.55765e-06
0.000117301
-3.95655e-05
-2.47735e-06
0.000128626
-3.53976e-05
-8.25131e-06
0.000120808
-4.34669e-05
-5.5383e-06
0.000113913
-7.78183e-05
6.14456e-06
0.000125474
-7.60624e-05
1.03531e-05
0.000132559
-3.09309e-05
7.8317e-06
0.000122609
-3.99166e-06
8.77032e-06
0.000107249
-6.89321e-06
1.37341e-05
9.92916e-05
-5.6898e-06
1.40905e-05
0.000101005
8.50843e-06
3.99019e-06
0.000106884
2.09496e-05
-9.0657e-06
0.00011113
1.29466e-05
-1.26001e-05
0.000109238
-1.82695e-06
-1.10057e-05
9.9819e-05
-1.83052e-07
-7.72901e-06
8.83977e-05
1.07842e-05
-4.38475e-06
8.06796e-05
1.8705e-05
-1.47778e-06
7.78653e-05
1.94696e-05
2.49634e-06
8.01122e-05
7.64378e-07
6.78522e-06
8.7615e-05
-3.09803e-05
9.56936e-06
9.83296e-05
-4.56004e-05
1.0717e-05
0.000102129
-2.80797e-05
1.34623e-05
9.55772e-05
3.0655e-06
1.47687e-05
8.786e-05
2.63178e-05
9.78508e-06
8.5005e-05
3.35876e-05
3.21406e-06
8.69633e-05
2.52384e-05
3.37115e-06
9.40641e-05
9.45977e-06
9.1371e-06
0.0001042
-2.86539e-06
9.95006e-06
0.000111458
-2.48704e-06
2.27714e-06
0.000116239
7.28149e-06
-1.16863e-05
0.000121186
2.40162e-05
-2.37685e-05
0.000121365
4.3323e-05
-2.62764e-05
0.00011043
6.62617e-05
-2.09375e-05
9.65538e-05
8.23471e-05
-1.56405e-05
7.0768e-05
-1.36235e-05
0.000107279
4.44407e-05
-1.67003e-05
0.000103494
3.18151e-05
-1.05391e-05
0.000100605
1.56497e-05
-1.3189e-06
0.000101245
-3.31135e-06
2.93288e-06
0.000103205
-3.98604e-06
2.71927e-06
0.000100187
8.50852e-06
-5.48386e-07
9.22693e-05
1.86138e-05
-2.54198e-06
9.08736e-05
2.31272e-05
-8.92585e-07
9.77371e-05
1.97296e-05
-1.0726e-06
0.000103263
2.06178e-05
-8.77269e-06
0.000103302
2.66347e-05
-1.53716e-05
0.000103389
7.39458e-06
-1.33835e-05
0.000114268
-3.74406e-05
-6.71365e-06
0.000133791
-4.36538e-05
-3.09574e-06
0.000138149
-9.26203e-06
-2.20437e-07
0.000123827
-2.5693e-06
2.21167e-06
0.000119575
-2.99187e-05
2.71789e-07
0.000133604
-4.20297e-05
-5.32238e-06
0.000139086
-4.44639e-05
-1.05872e-05
0.000129573
-6.69763e-05
-7.38189e-06
0.000131235
-7.89051e-05
1.38682e-07
0.000145651
-5.13678e-05
1.78186e-06
0.000149499
-2.0859e-05
4.44517e-06
0.0001359
-1.29633e-05
1.11318e-05
0.000118148
-4.30223e-06
1.32123e-05
0.000107881
1.67897e-05
4.97874e-06
0.000106215
3.02946e-05
-4.30433e-06
0.000110304
1.02034e-05
-4.36925e-06
0.000114372
-1.72829e-05
-2.6461e-06
0.000111534
-1.32085e-05
-3.96206e-06
0.000102205
1.32331e-05
-6.36118e-06
9.39983e-05
3.0549e-05
-5.47153e-06
9.06816e-05
2.76584e-05
1.209e-06
9.0951e-05
3.30713e-06
8.60698e-06
9.37141e-05
-3.18768e-05
1.38393e-05
0.00010177
-5.01511e-05
1.64813e-05
0.000108753
-3.3879e-05
1.82422e-05
0.000106591
7.64554e-07
1.88316e-05
9.96162e-05
2.9802e-05
1.4025e-05
9.4802e-05
4.17865e-05
6.17358e-06
9.49013e-05
3.1575e-05
5.15695e-06
0.000103369
3.4253e-06
1.22933e-05
0.000117529
-1.8004e-05
1.50878e-05
0.000126463
-1.43402e-05
5.87416e-06
0.00012858
8.27511e-06
-1.03255e-05
0.000129579
3.35948e-05
-2.38791e-05
0.000127089
5.26423e-05
-2.60038e-05
0.000115575
7.38269e-05
-1.69343e-05
0.000105687
8.60171e-05
-1.05509e-05
6.97855e-05
-1.42178e-05
0.000128634
3.52921e-05
-9.7352e-06
0.000132658
2.43814e-05
-1.08488e-05
0.000134977
3.8436e-06
-7.33622e-06
0.000136958
-1.62393e-05
-2.95574e-06
0.000135515
-9.67459e-06
-9.81424e-07
0.000125908
1.4648e-05
-3.52729e-06
0.000111599
2.71015e-05
-6.19416e-06
0.0001057
1.94143e-05
-1.95906e-06
0.00011088
7.04104e-06
2.12855e-06
0.000118155
1.35986e-05
-3.40945e-06
0.000120731
3.04135e-05
-1.22668e-05
0.000119834
1.84647e-05
-1.55421e-05
0.000124559
-3.06401e-05
-1.30421e-05
0.000139393
-5.10405e-05
-6.99054e-06
0.000147058
-1.78976e-05
5.10497e-07
0.000137379
2.31533e-06
3.08442e-06
0.000128553
-1.91242e-05
-5.39629e-07
0.000137117
-4.05622e-05
-6.9075e-06
0.000149858
-4.53696e-05
-1.48591e-05
0.000146998
-5.70219e-05
-1.57942e-05
0.000142809
-7.18601e-05
-8.60662e-06
0.00015666
-6.46794e-05
-4.89131e-06
0.000171033
-4.13885e-05
-2.48506e-06
0.000161279
-2.02424e-05
6.15894e-06
0.000134829
5.27954e-06
1.09278e-05
0.000116718
3.18674e-05
4.90812e-06
0.000119372
3.43628e-05
-3.2252e-07
0.000130675
7.58694e-08
2.91888e-06
0.000133158
-3.36203e-05
8.24113e-06
0.000125806
-2.45779e-05
4.45923e-06
0.000116407
1.49416e-05
-4.87192e-06
0.000112339
3.9619e-05
-9.41925e-06
0.000113467
3.09358e-05
-1.99084e-06
0.00011304
3.25651e-06
8.81807e-06
0.000109293
-3.17441e-05
1.77561e-05
0.000110754
-5.2044e-05
2.23675e-05
0.000115982
-3.64249e-05
2.48075e-05
0.000114923
1.5341e-06
2.4735e-05
0.000108822
3.25056e-05
2.08764e-05
0.000104599
4.42005e-05
1.44444e-05
0.000103739
3.36679e-05
1.01595e-05
0.000110861
-1.96358e-06
1.15006e-05
0.000128009
-3.60442e-05
1.4333e-05
0.000140007
-2.9931e-05
5.8949e-06
0.000138522
1.1017e-05
-1.44108e-05
0.000131263
4.62729e-05
-2.91973e-05
0.000122985
6.3595e-05
-2.86823e-05
0.000112449
7.57295e-05
-1.62944e-05
0.000109199
7.60328e-05
-5.45207e-06
5.52141e-05
-4.6758e-06
0.000146855
2.18588e-05
1.72019e-06
0.000155511
1.22961e-05
1.14047e-06
0.000159006
-4.85896e-06
4.99276e-07
0.000163613
-2.23164e-05
6.21656e-07
0.000167338
-1.24318e-05
-1.25124e-06
0.000159693
1.95199e-05
-7.0937e-06
0.000143152
3.58595e-05
-1.36011e-05
0.000131928
1.84609e-05
-9.75956e-06
0.00013088
-3.52307e-06
6.54274e-07
0.000133883
6.49683e-06
9.82719e-07
0.000135961
3.27823e-05
-8.65326e-06
0.000137337
2.84739e-05
-1.60386e-05
0.000140712
-1.74858e-05
-1.58596e-05
0.000149717
-4.77665e-05
-8.75472e-06
0.000156977
-2.44187e-05
1.47378e-07
0.000152469
2.49756e-06
3.28972e-06
0.000143969
-7.50304e-06
-1.44711e-06
0.000146718
-2.92622e-05
-1.01467e-05
0.000159819
-3.98825e-05
-1.73551e-05
0.000163985
-4.96728e-05
-1.65971e-05
0.000159983
-6.52958e-05
-9.35901e-06
0.000170282
-7.29244e-05
-7.14603e-06
0.000186829
-5.8342e-05
-8.60591e-06
0.000179168
-2.43653e-05
-8.2043e-07
0.000149814
1.86952e-05
8.36471e-06
0.000130693
4.67996e-05
4.79125e-06
0.000139205
3.40973e-05
-1.90084e-06
0.000157658
-1.29732e-05
2.3686e-06
0.00015922
-4.48406e-05
1.07756e-05
0.000143653
-2.62503e-05
9.37328e-06
0.000129744
2.08346e-05
-1.46453e-06
0.00012876
4.53667e-05
-1.05804e-05
0.000136218
3.05573e-05
-9.06545e-06
0.000140101
6.3948e-07
2.06842e-06
0.000133426
-2.96408e-05
1.58399e-05
0.000125972
-4.80059e-05
2.45169e-05
0.000125915
-3.49174e-05
2.85053e-05
0.000127002
1.22e-06
3.09889e-05
0.000125944
3.0734e-05
2.97299e-05
0.000126904
4.07443e-05
2.2113e-05
0.00012762
3.2244e-05
1.35464e-05
0.000126208
7.69938e-07
1.21317e-05
0.000129277
-3.86567e-05
1.51705e-05
0.000132787
-3.77776e-05
7.98029e-06
0.000129685
1.24076e-05
-1.40811e-05
0.000125471
5.26231e-05
-2.84201e-05
0.000124076
6.67659e-05
-2.50078e-05
0.000121462
7.242e-05
-1.3331e-05
0.000122654
6.57244e-05
-4.51179e-06
4.13694e-05
2.73548e-07
0.000164612
8.61817e-06
-1.90231e-06
0.000174536
-9.50664e-07
-2.61435e-07
0.000176491
-1.26518e-05
1.40183e-06
0.00017853
-2.46224e-05
5.5236e-06
0.000185728
-1.29949e-05
4.52813e-06
0.00018857
2.12317e-05
-5.79683e-06
0.000181362
3.97791e-05
-1.96249e-05
0.000170213
1.91385e-05
-2.08492e-05
0.000160944
-7.32069e-06
-6.16805e-06
0.000155022
3.85118e-06
1.66717e-06
0.00015302
3.55827e-05
-7.20856e-06
0.000153991
3.84628e-05
-1.77845e-05
0.000154926
4.08219e-07
-1.66172e-05
0.000158484
-3.43691e-05
-7.98824e-06
0.00016535
-2.439e-05
-1.21564e-06
0.000167589
1.39275e-06
1.16677e-06
0.000163692
2.85479e-06
-1.39267e-06
0.000164468
-1.36655e-05
-7.4087e-06
0.000177382
-3.30587e-05
-1.23609e-05
0.000187465
-4.8265e-05
-1.11784e-05
0.000184089
-6.16198e-05
-4.07376e-06
0.000187137
-7.76565e-05
-2.35527e-06
0.000198642
-7.06575e-05
-7.88143e-06
0.000190898
-2.58292e-05
-3.42331e-06
0.000164738
2.94629e-05
7.14106e-06
0.000150452
5.41826e-05
3.77727e-06
0.000159919
3.12202e-05
-5.85156e-06
0.000176926
-2.14835e-05
-2.35191e-07
0.00017991
-5.14902e-05
1.02828e-05
0.000164004
-2.47733e-05
1.18698e-05
0.000146403
2.91584e-05
2.77048e-06
0.000142301
5.42658e-05
-8.23295e-06
0.000151993
3.46783e-05
-1.62586e-05
0.000164659
6.87363e-08
-1.4526e-05
0.000164208
-2.37448e-05
-1.81926e-07
0.000150817
-3.52403e-05
1.82315e-05
0.000139988
-2.33616e-05
2.83059e-05
0.000140666
2.04625e-06
3.37586e-05
0.000150176
1.87058e-05
3.51761e-05
0.000161601
2.43018e-05
2.78555e-05
0.000164152
2.4272e-05
1.66144e-05
0.000153477
6.20268e-06
1.26214e-05
0.000137847
-2.65781e-05
1.56518e-05
0.00012608
-2.81187e-05
1.2634e-05
0.000121
1.45409e-05
-1.68216e-06
0.000124211
4.69971e-05
-1.38408e-05
0.00013083
5.48051e-05
-1.494e-05
0.00013497
5.83021e-05
-1.14826e-05
0.000139737
5.17203e-05
-8.5327e-06
2.89947e-05
-5.53562e-06
0.000177085
-3.92878e-06
-4.59208e-06
0.000185418
-1.25758e-05
-6.59149e-06
0.000188176
-2.10222e-05
-7.43096e-06
0.000188939
-2.75631e-05
1.95597e-06
0.000194891
-1.3051e-05
1.0103e-05
0.000205373
2.10049e-05
-5.58579e-07
0.000212581
3.7832e-05
-2.16491e-05
0.000209583
1.79558e-05
-2.87629e-05
0.000196166
-4.83691e-06
-1.38435e-05
0.000180698
8.53286e-06
-2.11696e-06
0.000172056
4.18799e-05
-9.97933e-06
0.000170639
4.9303e-05
-1.84383e-05
0.000170209
1.9495e-05
-1.26015e-05
0.000170358
-1.48716e-05
-4.22697e-06
0.000175899
-1.61353e-05
-1.84898e-06
0.000182727
2.38975e-06
-1.97674e-06
0.000184517
9.84638e-06
-3.22195e-06
0.00018535
1.65425e-07
-6.1426e-06
0.000195951
-2.76111e-05
-9.22826e-06
0.00020964
-5.41813e-05
-9.76889e-06
0.000209093
-6.3448e-05
-4.8836e-06
0.000203513
-7.61675e-05
-1.389e-06
0.000206296
-7.68828e-05
-4.45523e-06
0.000200853
-2.95033e-05
-1.98584e-06
0.000182019
3.32646e-05
6.79727e-06
0.000170887
5.63096e-05
3.01725e-06
0.000177644
2.91617e-05
-9.72829e-06
0.000192067
-2.65331e-05
-5.50429e-06
0.000198268
-5.71422e-05
8.49148e-06
0.00018673
-2.49941e-05
1.37072e-05
0.000166958
3.66381e-05
9.30206e-06
0.000156616
6.74191e-05
-1.54752e-06
0.000165979
4.22774e-05
-1.68193e-05
0.000188759
-2.37056e-06
-2.66963e-05
0.000200883
-2.2886e-05
-2.00668e-05
0.000187974
-2.04048e-05
1.3921e-06
0.000162478
-2.85713e-06
2.26329e-05
0.000147639
1.35541e-05
3.47816e-05
0.000154586
7.53879e-06
4.10442e-05
0.000176346
-3.92472e-06
3.72768e-05
0.000189894
2.30034e-06
2.67479e-05
0.000179334
7.18638e-06
1.91121e-05
0.000154223
-9.46718e-06
1.71132e-05
0.000135324
-1.34987e-05
1.47887e-05
0.000132241
1.39359e-05
4.84552e-06
0.000141185
3.42754e-05
-8.40847e-06
0.00014999
3.42744e-05
-1.44545e-05
0.000154691
3.73113e-05
-1.64576e-05
0.000158984
3.3757e-05
-1.55234e-05
1.46399e-05
-9.77035e-06
0.000199485
-1.42313e-05
-2.40019e-06
0.000202463
-1.88379e-05
-5.97121e-06
0.000203093
-2.39736e-05
-1.21572e-05
0.000201517
-2.83174e-05
-1.35665e-06
0.000203614
-1.1583e-05
1.37969e-05
0.000215224
2.09116e-05
7.03036e-06
0.000231679
3.33392e-05
-1.81355e-05
0.000237993
1.34941e-05
-2.87682e-05
0.000226511
-2.0241e-06
-1.66229e-05
0.000206332
1.80078e-05
-8.19667e-06
0.000192089
5.29461e-05
-1.47721e-05
0.000187887
6.21136e-05
-1.66618e-05
0.000186627
3.78492e-05
-7.45182e-06
0.000184937
6.5028e-06
-1.95475e-06
0.000188571
-2.07215e-06
-3.27911e-06
0.000197104
6.8273e-06
-5.64204e-06
0.000203424
1.36714e-05
-7.43216e-06
0.000207062
9.66225e-06
-8.31188e-06
0.000215434
-1.94506e-05
-8.01137e-06
0.000227385
-5.83986e-05
-7.15983e-06
0.000229355
-6.90821e-05
-3.40969e-06
0.000218667
-6.8356e-05
-1.13134e-06
0.000209488
-7.05199e-05
-3.94261e-06
0.000205213
-3.53986e-05
-2.52991e-06
0.000198335
2.40162e-05
4.87642e-06
0.00019269
5.06618e-05
1.27263e-06
0.000197169
2.60409e-05
-1.39136e-05
0.000209621
-3.05708e-05
-1.4372e-05
0.000218049
-6.03144e-05
4.10922e-06
0.00020899
-2.29403e-05
1.68619e-05
0.000187241
4.49561e-05
1.33484e-05
0.000173376
7.77764e-05
-5.40193e-07
0.00018191
4.51978e-05
-1.47322e-05
0.000209925
-1.29869e-05
-2.41166e-05
0.000232566
-3.45285e-05
-2.54374e-05
0.000223432
-1.11264e-05
-1.08993e-05
0.000188592
1.99828e-05
1.59109e-05
0.000161509
2.87636e-05
3.60769e-05
0.000159737
4.89831e-06
4.67106e-05
0.000180521
-2.68067e-05
4.63437e-05
0.000203049
-2.92765e-05
3.98478e-05
0.000202688
-7.89423e-06
3.09056e-05
0.000179583
9.17393e-07
2.15162e-05
0.000157669
1.87808e-06
1.37757e-05
0.000156587
1.03508e-05
3.65729e-06
0.000173295
1.19744e-05
-1.06776e-05
0.000188439
2.35057e-06
-1.88814e-05
0.000193708
8.7514e-06
-2.24542e-05
0.000194455
1.34088e-05
-2.18687e-05
5.2122e-07
-1.28033e-05
0.000239565
-1.76436e-05
-7.5756e-06
0.00023248
-1.98648e-05
-5.04209e-06
0.000226097
-1.97703e-05
-1.27763e-05
0.000219969
-2.12691e-05
-5.3743e-06
0.000218522
-6.14228e-06
1.37724e-05
0.000229267
1.87934e-05
1.82272e-05
0.000248863
2.21084e-05
1.77888e-08
0.000259485
2.712e-06
-1.41131e-05
0.000250149
-3.84309e-06
-1.14742e-05
0.00022997
2.45736e-05
-9.74865e-06
0.00021451
6.16468e-05
-1.6048e-05
0.000208371
7.09511e-05
-1.4422e-05
0.000205963
4.96021e-05
-4.39807e-06
0.000204847
2.23797e-05
-1.02739e-07
0.000208299
1.08122e-05
-3.5554e-06
0.000216041
1.07614e-05
-6.06152e-06
0.000223704
1.12597e-05
-3.372e-06
0.000231083
7.36271e-06
2.6205e-06
0.000240261
-1.64997e-05
6.50389e-06
0.000246849
-5.62406e-05
5.17252e-06
0.000246019
-7.29656e-05
5.7785e-06
0.000235961
-6.34937e-05
6.15969e-06
0.000220237
-5.61176e-05
-8.71421e-07
0.00021035
-3.44097e-05
-4.62079e-06
0.000209508
8.94765e-06
-1.17536e-06
0.000212694
3.25866e-05
-2.56153e-06
0.000221191
1.22608e-05
-1.25645e-05
0.000232374
-3.69607e-05
-1.58032e-05
0.000239994
-6.05903e-05
1.27068e-06
0.000234742
-1.93211e-05
2.0176e-05
0.000218978
4.95588e-05
1.63209e-05
0.000209412
7.69442e-05
-1.67358e-07
0.000214251
3.93887e-05
-6.56197e-06
0.000233051
-2.36331e-05
-7.53814e-06
0.00025417
-4.55835e-05
-1.18076e-05
0.000253079
-1.01964e-05
-8.19129e-06
0.000228605
3.13698e-05
1.01912e-05
0.000208195
3.42951e-05
2.80824e-05
0.000202429
8.67476e-06
3.71815e-05
0.000208937
-2.4743e-05
3.78001e-05
0.000221798
-3.81077e-05
3.46339e-05
0.00022788
-2.50609e-05
3.1051e-05
0.000218805
-7.61696e-06
2.38968e-05
0.00020577
2.61448e-06
1.4803e-05
0.000205289
8.09241e-06
4.96147e-06
0.000219307
2.18611e-06
-6.64181e-06
0.000236747
-1.68472e-05
-1.62729e-05
0.000248595
-2.05432e-05
-2.33499e-05
0.000251506
-9.06767e-06
-2.8957e-05
-8.47506e-06
-2.27537e-05
0.000279893
-1.50507e-05