/*--------------------------------*- C++ -*----------------------------------*\
| =========                 |                                                 |
| \\      /  F ield         | OpenFOAM: The Open Source CFD Toolbox           |
|  \\    /   O peration     | Version:  2.3.0                                 |
|   \\  /    A nd           | Web:      www.OpenFOAM.org                      |
|    \\/     M anipulation  |                                                 |
\*---------------------------------------------------------------------------*/
FoamFile
{
    version     2.0;
    format      ascii;
    class       volScalarField;
    location    "500";
    object      pMean;
}
// * * * * * * * * * * * * * * * * * * * * * * * * * * * * * * * * * * * * * //

dimensions      [0 2 -2 0 0 0 0];

internalField   nonuniform List<scalar> 
90000
(
0.000693485
0.00069335
0.000693404
0.000693358
0.00069326
0.000692952
0.000692423
0.000691794
0.000690993
0.000690307
0.000689826
0.000689601
0.000690039
0.000690515
0.000690429
0.00069026
0.000689995
0.000689681
0.000689173
0.000688482
0.000687219
0.00068613
0.000685437
0.000684844
0.000684216
0.000683477
0.0006829
0.000682356
0.000681739
0.000681091
0.000680345
0.000679967
0.000679949
0.000679773
0.000679602
0.000679715
0.000680021
0.000680491
0.00068127
0.000682035
0.000682953
0.000684159
0.000685277
0.000686225
0.000687445
0.000688919
0.000690168
0.000691116
0.000692054
0.000693125
0.000693507
0.000693353
0.000693396
0.000693348
0.000693247
0.000692935
0.000692405
0.000691778
0.00069097
0.000690277
0.000689788
0.000689553
0.000689992
0.000690485
0.000690412
0.000690272
0.000690017
0.00068971
0.000689211
0.00068852
0.000687255
0.000686164
0.000685465
0.000684867
0.000684241
0.000683488
0.000682915
0.000682366
0.000681742
0.000681101
0.000680348
0.000679958
0.00067995
0.000679779
0.000679612
0.000679731
0.000680044
0.000680524
0.000681304
0.000682056
0.000682982
0.000684174
0.000685282
0.000686231
0.000687455
0.000688932
0.000690185
0.00069114
0.000692066
0.00069315
0.000693337
0.000693181
0.00069321
0.000693155
0.000693055
0.000692752
0.000692216
0.000691585
0.000690785
0.000690105
0.000689639
0.000689421
0.000689846
0.000690333
0.000690253
0.000690137
0.000689919
0.000689629
0.000689131
0.000688444
0.00068717
0.000686053
0.000685352
0.000684756
0.000684122
0.000683375
0.000682786
0.000682241
0.000681631
0.000680995
0.000680256
0.000679842
0.000679807
0.000679623
0.000679445
0.000679565
0.000679881
0.000680358
0.000681134
0.000681884
0.000682808
0.00068398
0.000685079
0.000686045
0.000687273
0.000688758
0.000690012
0.000690985
0.000691933
0.000692989
0.000693023
0.00069283
0.000692847
0.000692794
0.000692686
0.000692396
0.000691851
0.000691214
0.000690424
0.000689777
0.000689329
0.000689076
0.000689437
0.000689888
0.000689827
0.000689708
0.000689561
0.000689343
0.000688868
0.000688183
0.000686949
0.000685843
0.00068511
0.000684461
0.00068383
0.000683055
0.000682435
0.000681883
0.000681259
0.000680615
0.000679912
0.000679483
0.000679427
0.000679257
0.000679089
0.000679201
0.000679536
0.000680027
0.000680797
0.000681563
0.000682456
0.000683605
0.000684682
0.000685667
0.000686942
0.00068844
0.000689678
0.00069064
0.000691538
0.000692595
0.000692516
0.000692381
0.00069239
0.000692315
0.000692192
0.000691907
0.000691367
0.000690734
0.000690015
0.000689407
0.000688991
0.000688691
0.000688882
0.00068926
0.000689122
0.000688964
0.00068888
0.000688739
0.000688314
0.000687637
0.000686418
0.000685321
0.000684601
0.000683922
0.000683252
0.000682504
0.000681856
0.000681334
0.000680767
0.000680193
0.000679508
0.000679039
0.000678914
0.000678746
0.000678607
0.000678742
0.000679085
0.000679531
0.000680252
0.000680997
0.000681857
0.000683005
0.000684103
0.000685114
0.0006864
0.000687926
0.000689158
0.000690177
0.000691029
0.000691999
0.000691872
0.000691965
0.000692011
0.000691928
0.000691737
0.000691413
0.000690829
0.000690128
0.000689354
0.000688697
0.000688124
0.000687708
0.000687737
0.000688052
0.000688014
0.000687872
0.000687837
0.000687827
0.000687506
0.000686931
0.000685799
0.00068477
0.000684048
0.000683282
0.000682549
0.00068175
0.000681089
0.000680563
0.000679948
0.000679342
0.000678783
0.000678361
0.000678236
0.000678104
0.000677968
0.000678101
0.00067849
0.000678962
0.000679634
0.000680369
0.000681235
0.000682398
0.000683486
0.000684506
0.000685807
0.000687349
0.000688585
0.00068952
0.000690328
0.000691184
0.000691537
0.000691618
0.000691516
0.000691378
0.000691159
0.000690776
0.000690151
0.000689378
0.000688579
0.000687857
0.000687216
0.000686719
0.000686612
0.000686842
0.00068685
0.000686722
0.000686697
0.000686699
0.000686391
0.00068585
0.000684869
0.000683932
0.000683282
0.000682486
0.000681658
0.000680839
0.000680086
0.000679654
0.000679126
0.000678533
0.000677994
0.000677627
0.000677518
0.000677431
0.000677293
0.000677412
0.00067781
0.000678265
0.000678828
0.000679525
0.000680383
0.000681473
0.000682426
0.000683335
0.000684649
0.000686305
0.000687566
0.000688636
0.0006895
0.000690576
0.000690891
0.000691089
0.000691001
0.00069089
0.000690621
0.000690109
0.000689369
0.000688426
0.000687497
0.000686692
0.000685914
0.000685455
0.000685303
0.000685505
0.000685582
0.000685328
0.000685221
0.000685288
0.000685164
0.000684697
0.000683833
0.000682983
0.00068245
0.000681695
0.000680813
0.000680017
0.000679288
0.00067877
0.000678107
0.000677376
0.000676854
0.00067653
0.000676288
0.000676042
0.00067584
0.000675976
0.00067645
0.000676987
0.000677638
0.000678392
0.000679124
0.000680083
0.000680969
0.000682003
0.000683494
0.000685323
0.000686713
0.000687812
0.000688681
0.000689703
0.00069018
0.000690457
0.000690313
0.000690191
0.000689783
0.00068911
0.000688136
0.000687158
0.000686366
0.00068572
0.000684947
0.000684351
0.000684038
0.000684169
0.000684376
0.00068412
0.000684025
0.000684078
0.000683853
0.000683293
0.000682535
0.000681895
0.000681382
0.000680511
0.000679473
0.000678693
0.000678122
0.000677842
0.000677305
0.000676624
0.000676042
0.000675578
0.000675117
0.000674696
0.000674414
0.000674359
0.000674625
0.000675074
0.00067564
0.000676427
0.000677259
0.000678322
0.000679456
0.000680841
0.000682652
0.000684532
0.000685756
0.000686699
0.000687569
0.000688777
0.000688919
0.000689335
0.000689137
0.000688928
0.000688496
0.000687778
0.000686814
0.000685921
0.000685136
0.000684462
0.000683618
0.000683024
0.000682746
0.000682765
0.000682915
0.000682668
0.000682596
0.000682611
0.000682491
0.000682013
0.000681419
0.000680842
0.000680264
0.000679309
0.00067829
0.000677581
0.000677155
0.000676975
0.000676539
0.000675885
0.00067519
0.000674696
0.000674292
0.000673927
0.000673597
0.000673256
0.000673028
0.000673146
0.000673568
0.000674407
0.000675487
0.000676775
0.000678036
0.000679611
0.000681557
0.000683425
0.000684568
0.000685392
0.00068619
0.000687321
0.000687787
0.000688378
0.000688244
0.000687835
0.000687111
0.000686226
0.000685362
0.000684619
0.000683837
0.000683144
0.000682308
0.000681784
0.000681527
0.000681501
0.000681578
0.000681471
0.0006815
0.000681617
0.000681587
0.00068116
0.000680597
0.000679966
0.00067936
0.000678593
0.000677737
0.000677072
0.000676427
0.000675971
0.0006754
0.000674817
0.000674135
0.00067372
0.000673406
0.000673083
0.000672789
0.000672609
0.000672412
0.000672414
0.000672688
0.000673493
0.00067445
0.000675681
0.000676998
0.000678589
0.000680382
0.000682094
0.000683382
0.000684347
0.000685079
0.000686102
0.000686899
0.000687427
0.000687343
0.000687021
0.000686296
0.000685418
0.000684534
0.000683875
0.000683166
0.000682464
0.000681602
0.00068102
0.0006807
0.00068068
0.000680975
0.000681101
0.000681188
0.00068103
0.000680729
0.000680235
0.000679853
0.000679393
0.00067892
0.000678295
0.000677461
0.000676819
0.000676266
0.000675711
0.000675132
0.000674461
0.000673659
0.000673155
0.000672957
0.0006729
0.000672912
0.000672911
0.000672816
0.000672767
0.00067289
0.000673487
0.000674252
0.000675239
0.000676322
0.00067765
0.000679278
0.000680806
0.000682075
0.000683185
0.000684099
0.000685448
0.000685284
0.000686021
0.000686261
0.000686155
0.000685754
0.000685323
0.000684837
0.000684255
0.000683379
0.000682508
0.000681707
0.000681226
0.000680944
0.000680874
0.000680948
0.000680978
0.000681026
0.000680945
0.000680668
0.00068024
0.000679864
0.00067931
0.000678691
0.000678084
0.000677499
0.000677126
0.000676777
0.000676391
0.000675763
0.000675
0.000674222
0.000673648
0.000673516
0.000673605
0.000673619
0.000673411
0.000673008
0.000672782
0.000672819
0.000673297
0.000673884
0.000674817
0.000675806
0.000676821
0.000678145
0.00067967
0.000681018
0.000682061
0.000683072
0.000683886
0.000683534
0.000684442
0.000684975
0.00068509
0.000684651
0.000684232
0.000683971
0.000683615
0.000682954
0.000682285
0.000681662
0.000681177
0.000680785
0.000680565
0.00068069
0.000680821
0.000680908
0.000680719
0.000680472
0.000680203
0.000679855
0.000679201
0.00067845
0.00067787
0.000677424
0.000677014
0.000676521
0.000676035
0.000675475
0.000674902
0.000674264
0.0006738
0.000673799
0.000674051
0.000674184
0.00067407
0.000673637
0.000673251
0.000673151
0.000673427
0.0006738
0.00067464
0.000675588
0.000676421
0.000677143
0.000678253
0.000679477
0.000680483
0.000681185
0.000682133
0.000682637
0.000683335
0.000683811
0.000684024
0.000683963
0.000683772
0.000683515
0.000683092
0.000682437
0.000681746
0.000680884
0.00068015
0.000679513
0.000679093
0.000678927
0.000678718
0.000678544
0.000678127
0.000677705
0.000677447
0.00067723
0.000676964
0.000676701
0.000676586
0.000676601
0.000676477
0.000676016
0.000675675
0.000675318
0.000674903
0.000674302
0.000673846
0.000673804
0.000673838
0.000673692
0.000673499
0.00067298
0.000672489
0.000672408
0.000672671
0.000672995
0.000673755
0.000674821
0.000675701
0.000676597
0.000677823
0.000679084
0.00067997
0.00068064
0.000681639
0.000681386
0.000681892
0.000682032
0.000682059
0.000682056
0.000681935
0.000681696
0.000681423
0.000680959
0.000680257
0.000679441
0.000678885
0.000678564
0.000678309
0.00067808
0.000677675
0.000677255
0.000676651
0.000676079
0.000675509
0.000675048
0.000674776
0.000674607
0.00067437
0.000674109
0.000673913
0.00067376
0.000673728
0.000673579
0.000673335
0.000672843
0.000672426
0.00067228
0.000672244
0.000672218
0.000672147
0.000671684
0.000671131
0.000671176
0.000671587
0.000671861
0.000672462
0.000673312
0.000674011
0.000674789
0.000676021
0.000677322
0.000678372
0.000679151
0.00068012
0.0006802
0.000680944
0.000681445
0.000681781
0.000681922
0.000681685
0.000681239
0.00068088
0.000680442
0.000679767
0.000679032
0.000678506
0.000678172
0.000677781
0.000677311
0.000676854
0.000676354
0.000675879
0.000675569
0.000674967
0.000674319
0.000673813
0.00067339
0.000673038
0.000672804
0.000672791
0.000672798
0.00067284
0.000672759
0.00067244
0.000671878
0.000671318
0.000671064
0.000670801
0.000670602
0.000670588
0.000670177
0.000670021
0.00067022
0.000670316
0.000670502
0.000671201
0.000672233
0.000673185
0.000674054
0.000675077
0.00067622
0.000677244
0.00067816
0.000679089
0.00067964
0.000680822
0.000681481
0.00068174
0.000681625
0.000681085
0.000680505
0.000680131
0.000679811
0.000679436
0.000678902
0.000678341
0.00067773
0.00067716
0.000676798
0.000676614
0.00067632
0.000676075
0.000675979
0.000675468
0.000674834
0.000674085
0.000673414
0.000672985
0.000672704
0.000672487
0.000672274
0.000672237
0.000672019
0.00067142
0.000670578
0.000670119
0.000670144
0.000670103
0.000670155
0.000670057
0.000669378
0.000669334
0.000669667
0.000670029
0.000670553
0.000671426
0.000672381
0.000673261
0.000673983
0.000674768
0.000675641
0.000676581
0.000677585
0.000678427
0.000680581
0.000681799
0.000682357
0.000682279
0.000681861
0.000681408
0.000681235
0.000681072
0.000680808
0.000680551
0.000679926
0.000679189
0.000678534
0.000678182
0.000677923
0.000677715
0.000677257
0.000677062
0.000677071
0.00067667
0.000676037
0.000675234
0.000674745
0.000674639
0.000674584
0.000674216
0.000673827
0.000673625
0.000673344
0.000672788
0.000672262
0.000672044
0.000672051
0.000671758
0.000671687
0.000671404
0.000671123
0.000671395
0.000671717
0.000672141
0.000673052
0.000673796
0.000674192
0.000675086
0.000676084
0.000676802
0.00067755
0.00067854
0.000679601
0.000680079
0.000685475
0.000687239
0.000687262
0.000686432
0.000685249
0.000684391
0.000683967
0.000683591
0.000683353
0.000683033
0.0006822
0.000681337
0.000680737
0.000680146
0.000679719
0.000679615
0.000679331
0.00067944
0.000679624
0.000679352
0.000678722
0.00067819
0.000677783
0.00067769
0.000677853
0.000677663
0.000677505
0.000677456
0.000676763
0.000675723
0.000674715
0.000674236
0.00067392
0.000673421
0.000673408
0.000673518
0.00067412
0.00067485
0.000675126
0.000675824
0.000676782
0.000677472
0.000678524
0.000679753
0.000680757
0.000681343
0.000682
0.000683027
0.000683843
0.000684123
0.000680167
0.000688058
0.000688202
0.000687146
0.000686078
0.00068566
0.000685558
0.000685288
0.000684948
0.00068452
0.000683823
0.00068308
0.000682375
0.000681379
0.000680633
0.000680194
0.000679908
0.00068014
0.00067982
0.000679904
0.000679275
0.000678785
0.000678535
0.000678417
0.000678547
0.000678618
0.000678473
0.000678072
0.000677327
0.000676978
0.00067657
0.000676698
0.000676457
0.000675737
0.000675158
0.000675125
0.000676004
0.0006772
0.000677502
0.000677315
0.000677838
0.000677418
0.000679349
0.000679959
0.000680559
0.000681304
0.0006822
0.00068265
0.000683791
0.000679334
0.000685352
0.000687039
0.000687379
0.000687114
0.000686283
0.000685419
0.000684797
0.000684503
0.000684252
0.000683903
0.000683372
0.000682813
0.000682278
0.000681718
0.000681371
0.000681242
0.000681383
0.000681606
0.000681375
0.000681715
0.000681628
0.000681295
0.000680893
0.000680738
0.000680844
0.000681028
0.000680605
0.00068006
0.000679482
0.000678987
0.000678143
0.000677553
0.000677392
0.000677325
0.000677026
0.000677059
0.000677829
0.000678266
0.000679036
0.000679075
0.000679869
0.000680118
0.000681002
0.000682009
0.000682078
0.000682483
0.000682735
0.000683362
0.000683776
0.000684308
0.000687385
0.000690082
0.000690697
0.000689921
0.000688859
0.000688019
0.000687431
0.0006869
0.000686491
0.00068622
0.000685964
0.000685527
0.000684807
0.00068395
0.000683314
0.000682811
0.000682643
0.000682854
0.000682318
0.000682585
0.000682242
0.000681862
0.000681978
0.000682044
0.000682079
0.000682204
0.000682053
0.000681919
0.000681738
0.000681521
0.000681207
0.000681158
0.000680948
0.00068083
0.000680588
0.000679794
0.000680434
0.000680439
0.000681402
0.000681924
0.000682137
0.000681602
0.000682352
0.000683657
0.0006845
0.000685277
0.000686385
0.000686927
0.000687897
0.00068782
0.000688928
0.000690082
0.000690328
0.000689766
0.000688907
0.000688053
0.000687425
0.000687035
0.000686649
0.000686388
0.000685779
0.000684936
0.000684302
0.00068375
0.000683353
0.000683098
0.000683038
0.000683203
0.000682925
0.000682865
0.000682876
0.000682985
0.000683119
0.000683054
0.000682795
0.000682605
0.000682344
0.000681974
0.000681593
0.00068123
0.000680853
0.000680552
0.000680335
0.000680164
0.000680249
0.000680301
0.000680962
0.000681198
0.00068195
0.000682722
0.000682892
0.000683323
0.000684264
0.000685082
0.000685279
0.000685847
0.000686425
0.000686837
0.00068703
0.00068784
0.000688273
0.000687912
0.000687565
0.000687151
0.000686665
0.000686136
0.000685752
0.000685587
0.000685635
0.000685712
0.000685561
0.000685139
0.000684568
0.000683979
0.000683386
0.00068296
0.000682647
0.000682315
0.000681547
0.000681078
0.000680708
0.000680389
0.000680153
0.000680059
0.00068012
0.000680078
0.000679981
0.000679896
0.000679814
0.000679706
0.000679579
0.000679687
0.000680106
0.000680336
0.000680179
0.000679508
0.000679618
0.00067988
0.00068013
0.000680496
0.000680525
0.000680897
0.00068147
0.000682155
0.000682887
0.000683499
0.000684226
0.000685238
0.000686019
0.000687445
0.000684071
0.000684704
0.000684992
0.000684988
0.000684696
0.000684204
0.000683614
0.000683315
0.000683439
0.000683699
0.000683551
0.000682821
0.000681826
0.000681002
0.000680352
0.00067991
0.000679663
0.000679675
0.000679766
0.000679654
0.00067953
0.000679565
0.000679658
0.000679614
0.000679559
0.000679349
0.00067887
0.000678188
0.00067745
0.000676921
0.000676644
0.00067641
0.000676593
0.000676938
0.000677258
0.000677499
0.000677726
0.000678183
0.000678615
0.000679077
0.000679417
0.000679826
0.000680505
0.000681364
0.000682135
0.000682759
0.000683269
0.000683774
0.000684006
0.000684017
0.00068571
0.000684914
0.000683712
0.000682592
0.000682021
0.00068162
0.000681736
0.000681955
0.000682545
0.000682861
0.000682644
0.00068208
0.000681519
0.000681119
0.000680788
0.000680385
0.000679885
0.000679357
0.000678786
0.0006784
0.00067815
0.000677982
0.000678101
0.000678321
0.000678522
0.000678436
0.000678275
0.000678079
0.000678
0.000677925
0.000677896
0.000677902
0.000678194
0.000678647
0.000679266
0.000679651
0.000679815
0.000679969
0.000680223
0.000680494
0.000680787
0.000680948
0.000680996
0.000680984
0.000681168
0.000681693
0.000682156
0.000682598
0.000683349
0.000684548
0.000683215
0.000683336
0.000682783
0.000682977
0.000682046
0.000681839
0.000681439
0.000684042
0.000685924
0.000686503
0.000685675
0.000684216
0.000682949
0.000682394
0.000682121
0.000681833
0.000681288
0.000680966
0.000680874
0.000680703
0.000680538
0.000680396
0.000680317
0.000680353
0.000680452
0.000680571
0.000680534
0.000680322
0.000679774
0.000679233
0.000678726
0.000678455
0.000678178
0.00067796
0.000677847
0.000678068
0.0006782
0.000678558
0.000678948
0.000679759
0.000680066
0.00068024
0.000680017
0.000680419
0.000680916
0.000682077
0.000682733
0.000683331
0.000683399
0.000683456
0.000683086
0.000682679
0.000681787
0.000681042
0.000680568
0.000680228
0.000680039
0.00068014
0.000680639
0.000680908
0.000681065
0.000680964
0.000680629
0.000680334
0.000680227
0.000680303
0.000680356
0.000680309
0.00068002
0.000679506
0.00067904
0.000678839
0.000678834
0.000678796
0.000678534
0.000678304
0.000678205
0.00067826
0.000678521
0.000678438
0.000678267
0.00067795
0.000677476
0.000677031
0.000677
0.000677447
0.000678048
0.000678404
0.000678518
0.000678532
0.000678647
0.000678788
0.000678753
0.000679047
0.000679518
0.000680209
0.000680693
0.000681062
0.000681366
0.000682137
0.000680322
0.000680304
0.00068005
0.000679752
0.00067954
0.000679572
0.000679699
0.000679919
0.000680373
0.000680688
0.000680813
0.000680427
0.000679829
0.000679548
0.000679084
0.000678417
0.00067791
0.000677367
0.000676798
0.000676562
0.000676571
0.000676639
0.000676486
0.000676044
0.000675576
0.000675518
0.00067599
0.000676387
0.000676305
0.000675743
0.00067505
0.000674817
0.000674857
0.000674999
0.000675283
0.000675413
0.000675619
0.000675844
0.000675942
0.000676029
0.000676481
0.000677022
0.000677432
0.000677716
0.00067786
0.000678188
0.000678584
0.000678899
0.000679205
0.000679726
0.000699882
0.000699804
0.000699845
0.000700194
0.000700201
0.000699847
0.000699297
0.000698714
0.000697745
0.000696664
0.00069558
0.000694587
0.000693595
0.000692553
0.000691808
0.000690946
0.000690542
0.000690608
0.000690763
0.000690803
0.000690535
0.000690259
0.000690036
0.000689489
0.000688877
0.000688558
0.000687831
0.00068705
0.000686286
0.000685631
0.000685782
0.000686072
0.000686455
0.000686521
0.000686376
0.000686363
0.000686801
0.000687696
0.000689085
0.000690507
0.000691491
0.000692958
0.000694621
0.000695907
0.000696651
0.000697309
0.000697691
0.000698185
0.000698642
0.000699365
0.000699773
0.000699705
0.000699723
0.000700024
0.000700006
0.000699637
0.000699094
0.000698531
0.000697602
0.000696574
0.000695538
0.00069454
0.000693499
0.000692426
0.000691698
0.000690879
0.000690482
0.00069053
0.000690697
0.000690757
0.000690497
0.00069021
0.000689985
0.000689463
0.000688909
0.00068863
0.000687889
0.000687044
0.000686222
0.000685532
0.000685623
0.000685857
0.000686219
0.000686308
0.000686216
0.000686284
0.000686807
0.000687733
0.000689067
0.000690415
0.000691352
0.000692776
0.000694445
0.000695717
0.000696431
0.000697083
0.000697484
0.000697991
0.000698485
0.000699248
0.000699556
0.000699507
0.000699552
0.000699858
0.000699847
0.000699529
0.000699042
0.00069853
0.000697588
0.000696468
0.00069534
0.000694327
0.000693337
0.000692322
0.000691612
0.000690783
0.000690384
0.000690379
0.000690497
0.000690558
0.000690281
0.000689991
0.000689745
0.000689214
0.0006887
0.000688498
0.000687829
0.000687006
0.000686109
0.000685398
0.000685459
0.000685602
0.000685957
0.000686073
0.000685961
0.000685941
0.000686413
0.000687393
0.000688752
0.000690098
0.000691104
0.00069266
0.000694363
0.00069559
0.000696228
0.000696826
0.000697291
0.000697902
0.000698413
0.000699101
0.000698832
0.000698883
0.000699047
0.000699436
0.000699482
0.000699184
0.000698635
0.000698044
0.000697028
0.000695801
0.00069465
0.000693656
0.000692675
0.000691722
0.000691028
0.000690226
0.000689924
0.000689898
0.00069001
0.000690119
0.000689844
0.000689535
0.00068923
0.000688664
0.000688228
0.00068808
0.000687423
0.000686591
0.00068567
0.000685057
0.000685183
0.000685222
0.000685486
0.00068561
0.000685474
0.000685356
0.000685761
0.000686864
0.000688254
0.000689435
0.000690381
0.000692105
0.000693926
0.000695084
0.00069555
0.000696041
0.000696499
0.000697137
0.000697661
0.000698324
0.00069776
0.000697879
0.000698139
0.000698579
0.000698722
0.000698529
0.000697943
0.000697274
0.000696204
0.000694862
0.000693518
0.000692471
0.000691449
0.000690579
0.000689872
0.000689041
0.000688826
0.000688859
0.00068907
0.000689358
0.000689219
0.000689112
0.000688797
0.000688144
0.000687778
0.000687678
0.000686969
0.000686083
0.000685003
0.00068451
0.000684685
0.000684471
0.000684586
0.000684771
0.000684609
0.000684419
0.00068467
0.000685726
0.000687007
0.00068788
0.000688822
0.000690744
0.000692728
0.000693849
0.000694241
0.000694657
0.000695152
0.000695952
0.000696622
0.00069733
0.000696393
0.000696638
0.000696918
0.000697285
0.000697345
0.000697101
0.000696504
0.000695807
0.000694755
0.000693303
0.000691918
0.000690913
0.000690013
0.000689354
0.000688756
0.00068797
0.000687839
0.000687814
0.000687994
0.000688348
0.000688325
0.000688417
0.000688116
0.000687327
0.000686995
0.000686848
0.000686078
0.000685121
0.000683939
0.00068336
0.000683493
0.000683013
0.000682898
0.000683113
0.000683111
0.000683063
0.000683279
0.00068435
0.000685535
0.000686104
0.000686953
0.000688984
0.000691034
0.000692063
0.000692325
0.00069269
0.000693341
0.000694395
0.000695262
0.000695964
0.000694577
0.00069524
0.000695725
0.000696065
0.000696003
0.000695646
0.000694926
0.000694147
0.000693023
0.00069147
0.000690069
0.000689098
0.000688242
0.000687662
0.00068707
0.000686375
0.000686343
0.000686301
0.000686549
0.000686933
0.000686915
0.000687214
0.000686932
0.000686019
0.000685717
0.000685496
0.000684573
0.000683684
0.000682534
0.000681896
0.000681661
0.000680884
0.000680564
0.000680554
0.000680664
0.00068092
0.00068143
0.000682674
0.000683743
0.00068384
0.000684602
0.00068668
0.000688752
0.000689795
0.000690286
0.000690898
0.000691639
0.000692693
0.000693501
0.000694039
0.000692166
0.000693325
0.000693902
0.000694147
0.000694003
0.000693452
0.000692707
0.000692029
0.000690957
0.00068945
0.000688036
0.00068704
0.000686133
0.000685552
0.000684942
0.000684454
0.000684531
0.000684612
0.000684786
0.000685175
0.000685253
0.000685601
0.000685388
0.0006844
0.000683886
0.000683345
0.000682226
0.000681312
0.000680241
0.000679345
0.000678705
0.000677949
0.00067752
0.000677395
0.000677749
0.00067833
0.000679099
0.000680499
0.000681405
0.000681322
0.000682189
0.000684076
0.000685661
0.000686568
0.000687407
0.00068861
0.00068971
0.000690811
0.000691539
0.000691545
0.00068989
0.000691322
0.000691838
0.000691954
0.000691636
0.000690978
0.000690304
0.000689668
0.000688697
0.000687271
0.000685893
0.000684972
0.000684071
0.000683459
0.000682713
0.000682274
0.000682367
0.000682357
0.00068242
0.000682656
0.000682737
0.000683135
0.000683246
0.000682624
0.000682084
0.000681313
0.000680053
0.000679067
0.000678023
0.000676913
0.000676028
0.000675268
0.000674629
0.000674343
0.000674791
0.00067543
0.00067628
0.000677502
0.00067826
0.000678572
0.000679722
0.000680984
0.000682091
0.00068288
0.000684117
0.00068597
0.000687739
0.000689195
0.000690047
0.000689741
0.000688672
0.000690698
0.000690922
0.000690777
0.000690256
0.000689326
0.000688448
0.000687534
0.000686371
0.000684782
0.000683328
0.000682505
0.000681987
0.000681456
0.000680524
0.000680256
0.00068022
0.000680154
0.00068014
0.00068018
0.000680235
0.000680679
0.000681006
0.000680627
0.000680131
0.000679411
0.000678511
0.000677544
0.000676499
0.000675408
0.000674386
0.000673626
0.00067286
0.000672555
0.000673087
0.000673557
0.000674118
0.000674933
0.000675384
0.000675567
0.000676749
0.000678045
0.000679171
0.000680186
0.000681398
0.000682878
0.000684297
0.000686395
0.000687568
0.000687197
0.00068432
0.000688703
0.000689202
0.000688901
0.000688109
0.00068709
0.000686199
0.00068524
0.000684061
0.000682481
0.000681168
0.000680518
0.00068033
0.000679666
0.000678486
0.000678439
0.00067844
0.00067839
0.000678234
0.000678202
0.000678377
0.000678936
0.000679339
0.00067919
0.000678742
0.000678104
0.000677689
0.000676822
0.000675747
0.000674737
0.000673637
0.000672675
0.000671848
0.000671509
0.000671623
0.000671695
0.000672331
0.000673066
0.000673054
0.000673178
0.000674585
0.000676231
0.000677602
0.00067854
0.000679311
0.000679677
0.000680049
0.000682002
0.000684549
0.0006829
0.000683849
0.000686371
0.000686984
0.000686623
0.000685751
0.000684828
0.000684202
0.000683601
0.000682708
0.000681539
0.0006807
0.000680273
0.00067998
0.000679123
0.000677932
0.000677719
0.000677466
0.000677147
0.000676858
0.000676794
0.000677107
0.000677693
0.00067795
0.000677667
0.000677305
0.000676807
0.000676486
0.000675847
0.000675146
0.000674381
0.000673018
0.000671807
0.000671188
0.000670934
0.00067076
0.000670568
0.000671176
0.000671987
0.000671764
0.000671491
0.000673118
0.000675174
0.000676441
0.000677027
0.000677733
0.000678465
0.000679111
0.000681022
0.000682512
0.000682524
0.000683179
0.0006855
0.000686017
0.000685536
0.000684569
0.000683657
0.000683088
0.000682486
0.000681683
0.000680856
0.000680358
0.000680043
0.000679607
0.000678791
0.000677811
0.000677809
0.000677634
0.000677268
0.000676716
0.000676429
0.000676359
0.000676585
0.000676592
0.000676244
0.000675765
0.000675135
0.000674906
0.000674406
0.000673843
0.000673199
0.000672192
0.000671309
0.000670936
0.000670722
0.000670431
0.000670181
0.000670944
0.000672118
0.000672433
0.000671839
0.000672645
0.000674281
0.000675485
0.000675763
0.0006764
0.000677612
0.00067915
0.000680891
0.000683094
0.000682937
0.000682068
0.000683943
0.000684646
0.000684378
0.000683632
0.000682898
0.000682436
0.000681951
0.000681297
0.000680697
0.000680214
0.000679666
0.000679076
0.00067835
0.00067764
0.000677679
0.000677649
0.000677413
0.000677039
0.000676709
0.000676527
0.000676535
0.000676334
0.000675822
0.000675292
0.000674581
0.000674383
0.000674122
0.000673577
0.00067268
0.000671784
0.000671315
0.000671242
0.000670867
0.000670128
0.000669719
0.00067029
0.000671449
0.000672296
0.000672162
0.000672585
0.000673739
0.000674954
0.000675624
0.00067651
0.000677901
0.000679185
0.000680519
0.00068174
0.000681743
0.000681877
0.0006828
0.000683627
0.00068374
0.000683246
0.000682598
0.00068218
0.000681805
0.000681304
0.000680725
0.000680201
0.000679646
0.000679133
0.00067874
0.000678182
0.000678177
0.000678088
0.000677946
0.000677697
0.000677524
0.000677383
0.000677305
0.000677134
0.000676605
0.000675869
0.000675074
0.000674668
0.00067441
0.000673817
0.000672879
0.000672234
0.000672217
0.000672444
0.000672138
0.00067133
0.000670805
0.000670979
0.00067158
0.000672215
0.000672033
0.000672356
0.000673135
0.000674311
0.000675539
0.000677029
0.000678745
0.000679873
0.00068062
0.000681637
0.000682047
0.000681372
0.000682003
0.000682941
0.000683404
0.000683135
0.000682499
0.000681915
0.000681407
0.000680832
0.000680216
0.000679511
0.000678908
0.000678609
0.000678509
0.0006783
0.00067805
0.00067777
0.000677541
0.000677404
0.000677461
0.000677479
0.000677482
0.000677568
0.000677533
0.00067712
0.000676057
0.000675377
0.000674892
0.000674075
0.000672945
0.000672463
0.000672247
0.000672259
0.0006721
0.00067171
0.000671527
0.000671831
0.000672237
0.000672701
0.000673033
0.00067356
0.000674378
0.000675581
0.000676838
0.000678323
0.000679943
0.00068081
0.000681331
0.000681753
0.000681753
0.000682797
0.000682928
0.000683072
0.000683212
0.000682859
0.000682184
0.000681632
0.000681165
0.000680498
0.000679592
0.000678769
0.000678428
0.000678602
0.000678756
0.00067875
0.000678571
0.0006784
0.000678192
0.000677777
0.000677896
0.000677801
0.000677324
0.000677022
0.000676903
0.000676532
0.000675662
0.000674783
0.000674065
0.000673431
0.000672729
0.000672162
0.000671899
0.000671998
0.000671914
0.000671725
0.000671802
0.000672202
0.000672761
0.00067339
0.000673896
0.000674503
0.000675153
0.000675981
0.000676977
0.000678101
0.000679455
0.000680242
0.00068085
0.000681364
0.000681935
0.000682577
0.000683446
0.000683929
0.000684075
0.000683705
0.000683042
0.00068252
0.000682047
0.000681277
0.000680288
0.00067938
0.000678782
0.000678639
0.000678511
0.000678326
0.000678261
0.000678265
0.000678234
0.000678035
0.00067773
0.00067731
0.000676819
0.000676575
0.000676455
0.000676292
0.000675598
0.000674754
0.000674016
0.000673458
0.00067284
0.000672336
0.00067204
0.000671954
0.000671804
0.000671855
0.000672111
0.000672401
0.000673041
0.000673877
0.000674438
0.000674706
0.000675105
0.000676039
0.000677425
0.000678652
0.00067975
0.000680714
0.000681374
0.000682085
0.000682414
0.000683292
0.00068355
0.000683204
0.000682637
0.000681942
0.000681241
0.000680783
0.000680436
0.000679835
0.000679083
0.000678326
0.000677732
0.000677417
0.000677274
0.000677098
0.000677045
0.000677087
0.00067721
0.000677143
0.00067668
0.000676135
0.000675637
0.000675414
0.000675213
0.00067493
0.000674498
0.000673931
0.000673276
0.000672742
0.000672277
0.000671767
0.000671159
0.000670788
0.0006709
0.000671443
0.000672193
0.000672806
0.000673517
0.000674152
0.000674506
0.000674843
0.000675583
0.000676668
0.00067764
0.000678295
0.00067897
0.000679896
0.000680742
0.000681424
0.000682323
0.000683385
0.000683533
0.000682837