/*--------------------------------*- C++ -*----------------------------------*\
| =========                 |                                                 |
| \\      /  F ield         | OpenFOAM: The Open Source CFD Toolbox           |
|  \\    /   O peration     | Version:  2.3.0                                 |
|   \\  /    A nd           | Web:      www.OpenFOAM.org                      |
|    \\/     M anipulation  |                                                 |
\*---------------------------------------------------------------------------*/
FoamFile
{
    version     2.0;
    format      ascii;
    class       volScalarField;
    location    "500";
    object      pPrime2Mean;
}
// * * * * * * * * * * * * * * * * * * * * * * * * * * * * * * * * * * * * * //

dimensions      [0 4 -4 0 0 0 0];

internalField   nonuniform List<scalar> 
90000
(
3.53165e-05
3.53233e-05
3.53269e-05
3.5298e-05
3.52822e-05
3.52845e-05
3.53108e-05
3.5348e-05
3.53799e-05
3.54388e-05
3.55153e-05
3.55794e-05
3.56524e-05
3.56373e-05
3.49913e-05
3.51473e-05
3.52224e-05
3.52477e-05
3.5252e-05
3.52598e-05
3.5291e-05
3.53575e-05
3.54603e-05
3.55797e-05
3.56923e-05
3.5014e-05
3.50944e-05
3.51476e-05
3.51841e-05
3.52213e-05
3.52604e-05
3.53298e-05
3.53932e-05
3.54339e-05
3.5477e-05
3.55339e-05
3.5604e-05
3.56991e-05
3.5769e-05
3.50119e-05
3.51414e-05
3.52984e-05
3.54498e-05
3.55677e-05
3.56658e-05
3.57614e-05
3.58483e-05
3.5955e-05
3.60667e-05
3.61262e-05
3.53095e-05
3.53224e-05
3.53261e-05
3.52971e-05
3.52812e-05
3.5284e-05
3.53108e-05
3.53482e-05
3.53796e-05
3.54379e-05
3.55139e-05
3.55768e-05
3.56503e-05
3.56427e-05
3.49822e-05
3.51472e-05
3.52226e-05
3.52482e-05
3.52525e-05
3.52594e-05
3.52913e-05
3.53589e-05
3.54598e-05
3.55783e-05
3.57007e-05
3.50055e-05
3.50946e-05
3.51464e-05
3.51819e-05
3.52197e-05
3.52588e-05
3.53276e-05
3.53915e-05
3.54328e-05
3.54762e-05
3.55334e-05
3.56038e-05
3.56992e-05
3.57785e-05
3.50047e-05
3.51434e-05
3.53024e-05
3.54499e-05
3.55676e-05
3.56663e-05
3.57615e-05
3.58476e-05
3.59533e-05
3.60618e-05
3.61354e-05
3.52955e-05
3.53208e-05
3.53253e-05
3.52951e-05
3.5279e-05
3.52831e-05
3.53108e-05
3.53488e-05
3.5382e-05
3.5441e-05
3.55179e-05
3.55819e-05
3.56536e-05
3.56537e-05
3.49747e-05
3.51469e-05
3.52231e-05
3.52478e-05
3.52503e-05
3.52582e-05
3.52901e-05
3.53553e-05
3.54574e-05
3.55762e-05
3.57099e-05
3.49973e-05
3.50939e-05
3.51472e-05
3.51857e-05
3.52252e-05
3.52651e-05
3.53303e-05
3.53912e-05
3.54316e-05
3.54753e-05
3.55325e-05
3.56023e-05
3.5696e-05
3.57849e-05
3.49961e-05
3.51432e-05
3.53021e-05
3.54475e-05
3.55668e-05
3.5664e-05
3.5758e-05
3.58443e-05
3.5952e-05
3.60618e-05
3.61444e-05
3.52882e-05
3.53224e-05
3.53268e-05
3.52956e-05
3.52784e-05
3.52833e-05
3.53109e-05
3.53473e-05
3.53771e-05
3.54371e-05
3.5513e-05
3.55752e-05
3.56464e-05
3.56583e-05
3.49674e-05
3.51446e-05
3.52233e-05
3.5249e-05
3.52503e-05
3.52589e-05
3.52952e-05
3.53632e-05
3.54626e-05
3.55756e-05
3.57219e-05
3.49918e-05
3.50932e-05
3.51457e-05
3.51791e-05
3.52164e-05
3.52633e-05
3.53258e-05
3.53861e-05
3.54284e-05
3.54741e-05
3.55303e-05
3.56011e-05
3.56963e-05
3.57956e-05
3.49963e-05
3.51501e-05
3.53082e-05
3.54495e-05
3.5569e-05
3.56661e-05
3.57599e-05
3.58441e-05
3.59488e-05
3.60498e-05
3.61506e-05
3.52853e-05
3.53271e-05
3.53223e-05
3.52885e-05
3.52743e-05
3.52804e-05
3.53087e-05
3.53445e-05
3.53802e-05
3.54426e-05
3.55277e-05
3.55953e-05
3.56603e-05
3.56788e-05
3.49666e-05
3.51448e-05
3.52242e-05
3.52468e-05
3.5244e-05
3.52505e-05
3.52878e-05
3.53533e-05
3.54535e-05
3.55666e-05
3.57228e-05
3.49886e-05
3.50946e-05
3.51516e-05
3.51909e-05
3.52347e-05
3.52786e-05
3.53339e-05
3.53856e-05
3.54266e-05
3.54748e-05
3.55305e-05
3.56032e-05
3.56919e-05
3.58008e-05
3.49931e-05
3.51492e-05
3.53024e-05
3.54459e-05
3.55654e-05
3.56573e-05
3.57518e-05
3.58362e-05
3.59472e-05
3.60413e-05
3.61555e-05
3.52632e-05
3.53334e-05
3.53361e-05
3.53015e-05
3.52789e-05
3.52821e-05
3.5307e-05
3.53376e-05
3.53667e-05
3.54287e-05
3.55064e-05
3.55738e-05
3.5643e-05
3.5671e-05
3.49592e-05
3.51406e-05
3.52207e-05
3.52465e-05
3.52466e-05
3.52575e-05
3.52978e-05
3.53633e-05
3.54592e-05
3.55635e-05
3.57297e-05
3.4988e-05
3.51012e-05
3.51547e-05
3.51819e-05
3.52179e-05
3.5275e-05
3.53285e-05
3.53787e-05
3.54229e-05
3.54667e-05
3.55161e-05
3.55916e-05
3.56846e-05
3.58119e-05
3.50006e-05
3.5159e-05
3.53136e-05
3.54596e-05
3.55837e-05
3.56719e-05
3.57598e-05
3.58442e-05
3.59415e-05
3.60264e-05
3.61366e-05
3.52925e-05
3.53422e-05
3.53233e-05
3.52837e-05
3.52611e-05
3.52674e-05
3.52971e-05
3.53323e-05
3.53728e-05
3.54424e-05
3.55301e-05
3.55974e-05
3.56559e-05
3.56816e-05
3.49635e-05
3.51455e-05
3.52322e-05
3.52579e-05
3.52393e-05
3.52412e-05
3.52859e-05
3.53531e-05
3.54486e-05
3.55505e-05
3.57276e-05
3.49872e-05
3.50846e-05
3.51466e-05
3.5194e-05
3.52398e-05
3.52912e-05
3.534e-05
3.53869e-05
3.5441e-05
3.54925e-05
3.55366e-05
3.56022e-05
3.56835e-05
3.58008e-05
3.49895e-05
3.51548e-05
3.53056e-05
3.54486e-05
3.55662e-05
3.56526e-05
3.57445e-05
3.58284e-05
3.59342e-05
3.60119e-05
3.61503e-05
3.52529e-05
3.53287e-05
3.53234e-05
3.52831e-05
3.52569e-05
3.52638e-05
3.52966e-05
3.53363e-05
3.53651e-05
3.54239e-05
3.55022e-05
3.55793e-05
3.56434e-05
3.56845e-05
3.49731e-05
3.51441e-05
3.5217e-05
3.52418e-05
3.52426e-05
3.52553e-05
3.52984e-05
3.5353e-05
3.54425e-05
3.55497e-05
3.57446e-05
3.50153e-05
3.51153e-05
3.51571e-05
3.51823e-05
3.52105e-05
3.52666e-05
3.53299e-05
3.53808e-05
3.54331e-05
3.54728e-05
3.55112e-05
3.55764e-05
3.56638e-05
3.57975e-05
3.50058e-05
3.51674e-05
3.53142e-05
3.54499e-05
3.55719e-05
3.56541e-05
3.57439e-05
3.58322e-05
3.59387e-05
3.60036e-05
3.6116e-05
3.52707e-05
3.53488e-05
3.5328e-05
3.52859e-05
3.5263e-05
3.52637e-05
3.52802e-05
3.53182e-05
3.536e-05
3.54386e-05
3.55273e-05
3.55903e-05
3.56355e-05
3.56735e-05
3.49867e-05
3.51746e-05
3.52564e-05
3.52733e-05
3.52427e-05
3.52358e-05
3.52684e-05
3.53324e-05
3.54232e-05
3.55286e-05
3.57242e-05
3.49967e-05
3.5087e-05
3.51411e-05
3.51749e-05
3.52125e-05
3.52829e-05
3.53408e-05
3.53875e-05
3.54314e-05
3.54676e-05
3.55003e-05
3.55684e-05
3.56568e-05
3.57915e-05
3.50047e-05
3.51663e-05
3.53114e-05
3.54492e-05
3.55715e-05
3.56595e-05
3.57507e-05
3.58211e-05
3.59226e-05
3.59778e-05
3.61101e-05
3.52635e-05
3.53422e-05
3.53112e-05
3.52616e-05
3.52491e-05
3.52579e-05
3.52834e-05
3.53301e-05
3.53703e-05
3.54382e-05
3.5504e-05
3.55669e-05
3.56173e-05
3.56448e-05
3.49807e-05
3.51779e-05
3.5252e-05
3.52488e-05
3.5223e-05
3.52202e-05
3.52718e-05
3.5335e-05
3.54191e-05
3.55225e-05
3.57168e-05
3.50022e-05
3.50974e-05
3.51534e-05
3.51926e-05
3.52145e-05
3.52731e-05
3.53338e-05
3.53874e-05
3.54281e-05
3.54678e-05
3.55045e-05
3.55652e-05
3.56506e-05
3.57805e-05
3.50092e-05
3.51802e-05
3.53308e-05
3.54405e-05
3.5548e-05
3.56406e-05
3.57391e-05
3.58145e-05
3.59155e-05
3.59722e-05
3.60915e-05
3.52555e-05
3.53326e-05
3.53049e-05
3.52496e-05
3.52259e-05
3.5242e-05
3.52786e-05
3.53245e-05
3.53586e-05
3.54181e-05
3.54936e-05
3.5572e-05
3.56163e-05
3.56328e-05
3.49828e-05
3.51887e-05
3.52568e-05
3.52569e-05
3.52217e-05
3.52246e-05
3.52754e-05
3.53216e-05
3.53974e-05
3.55136e-05
3.57073e-05
3.50274e-05
3.5133e-05
3.51833e-05
3.52136e-05
3.52264e-05
3.52752e-05
3.53481e-05
3.54012e-05
3.54082e-05
3.54168e-05
3.54655e-05
3.55406e-05
3.56265e-05
3.57544e-05
3.50233e-05
3.5192e-05
3.53297e-05
3.54325e-05
3.55391e-05
3.5624e-05
3.57219e-05
3.58231e-05
3.59355e-05
3.59669e-05
3.6066e-05
3.52855e-05
3.53518e-05
3.53122e-05
3.52566e-05
3.52327e-05
3.52408e-05
3.5248e-05
3.52872e-05
3.53435e-05
3.5437e-05
3.55231e-05
3.55713e-05
3.5602e-05
3.56287e-05
3.50138e-05
3.52398e-05
3.53229e-05
3.53033e-05
3.52334e-05
3.52202e-05
3.5256e-05
3.53107e-05
3.53967e-05
3.55096e-05
3.56644e-05
3.49742e-05
3.50998e-05
3.5163e-05
3.52181e-05
3.52276e-05
3.52748e-05
3.53437e-05
3.53931e-05
3.5393e-05
3.54111e-05
3.54521e-05
3.55448e-05
3.564e-05
3.57631e-05
3.50331e-05
3.52048e-05
3.53399e-05
3.54425e-05
3.55462e-05
3.56304e-05
3.57125e-05
3.57871e-05
3.58892e-05
3.59541e-05
3.60999e-05
3.52342e-05
3.53263e-05
3.53107e-05
3.52616e-05
3.52534e-05
3.52881e-05
3.53122e-05
3.53398e-05
3.53722e-05
3.54405e-05
3.54928e-05
3.5542e-05
3.55939e-05
3.56438e-05
3.50041e-05
3.51881e-05
3.52523e-05
3.52582e-05
3.51941e-05
3.51989e-05
3.52397e-05
3.52967e-05
3.53759e-05
3.54811e-05
3.56568e-05
3.50152e-05
3.51473e-05
3.52168e-05
3.52629e-05
3.52467e-05
3.52987e-05
3.53552e-05
3.53972e-05
3.53966e-05
3.54119e-05
3.54152e-05
3.54762e-05
3.55574e-05
3.57134e-05
3.50273e-05
3.52229e-05
3.53607e-05
3.54571e-05
3.55504e-05
3.56502e-05
3.57615e-05
3.5857e-05
3.59459e-05
3.60248e-05
3.6086e-05
3.52265e-05
3.53158e-05
3.53125e-05
3.52753e-05
3.5236e-05
3.52145e-05
3.52232e-05
3.52726e-05
3.53321e-05
3.54136e-05
3.5476e-05
3.55257e-05
3.55649e-05
3.56308e-05
3.5047e-05
3.52594e-05
3.53385e-05
3.53367e-05
3.52201e-05
3.52214e-05
3.5259e-05
3.52918e-05
3.53434e-05
3.54334e-05
3.56018e-05
3.49651e-05
3.50989e-05
3.51685e-05
3.52345e-05
3.52141e-05
3.52961e-05
3.53652e-05
3.54158e-05
3.54146e-05
3.54491e-05
3.54298e-05
3.55042e-05
3.55858e-05
3.57354e-05
3.50781e-05
3.5252e-05
3.53703e-05
3.5473e-05
3.55661e-05
3.56301e-05
3.56992e-05
3.57782e-05
3.58931e-05
3.59612e-05
3.60823e-05
3.51927e-05
3.52807e-05
3.52931e-05
3.52662e-05
3.52701e-05
3.52685e-05
3.52847e-05
3.53154e-05
3.53583e-05
3.54314e-05
3.54824e-05
3.55158e-05
3.55268e-05
3.55852e-05
3.50241e-05
3.52089e-05
3.52907e-05
3.53121e-05
3.51332e-05
3.5162e-05
3.52178e-05
3.52707e-05
3.5343e-05
3.54379e-05
3.56144e-05
3.50399e-05
3.51585e-05
3.52293e-05
3.53185e-05
3.52519e-05
3.53364e-05
3.53872e-05
3.54411e-05
3.54203e-05
3.54454e-05
3.53439e-05
3.54149e-05
3.55074e-05
3.56628e-05
3.50624e-05
3.52352e-05
3.53572e-05
3.54696e-05
3.55677e-05
3.56732e-05
3.57621e-05
3.58527e-05
3.59306e-05
3.60067e-05
3.61129e-05
3.52218e-05
3.53124e-05
3.52889e-05
3.5233e-05
3.51926e-05
3.51965e-05
3.52294e-05
3.52803e-05
3.53347e-05
3.53884e-05
3.54384e-05
3.54829e-05
3.55142e-05
3.55734e-05
3.51382e-05
3.53012e-05
3.53964e-05
3.54315e-05
3.5134e-05
3.51942e-05
3.52476e-05
3.52966e-05
3.53609e-05
3.54288e-05
3.55421e-05
3.5034e-05
3.51377e-05
3.52123e-05
3.53296e-05
3.51878e-05
3.52987e-05
3.53634e-05
3.54388e-05
3.54108e-05
3.54948e-05
3.53023e-05
3.53981e-05
3.54778e-05
3.56234e-05
3.51527e-05
3.53054e-05
3.54136e-05
3.54842e-05
3.55389e-05
3.56005e-05
3.57091e-05
3.5816e-05
3.59314e-05
3.60183e-05
3.61033e-05
3.51707e-05
3.52973e-05
3.53293e-05
3.52964e-05
3.52718e-05
3.52732e-05
3.5284e-05
3.53114e-05
3.53605e-05
3.54117e-05
3.54502e-05
3.54862e-05
3.55056e-05
3.54914e-05
3.52293e-05
3.53148e-05
3.5387e-05
3.55102e-05
3.50258e-05
3.51347e-05
3.51914e-05
3.52378e-05
3.53041e-05
3.53676e-05
3.54143e-05
3.5122e-05
3.51737e-05
3.5239e-05
3.53304e-05
3.52561e-05
3.53544e-05
3.54211e-05
3.54901e-05
3.5413e-05
3.55468e-05
3.51843e-05
3.53492e-05
3.54534e-05
3.55211e-05
3.52329e-05
3.52947e-05
3.53838e-05
3.54787e-05
3.55771e-05
3.56638e-05
3.57688e-05
3.58657e-05
3.59496e-05
3.60333e-05
3.61297e-05
3.51827e-05
3.53415e-05
3.53642e-05
3.52919e-05
3.52353e-05
3.52153e-05
3.52275e-05
3.52572e-05
3.53091e-05
3.53743e-05
3.54165e-05
3.54535e-05
3.54662e-05
3.54284e-05
3.52866e-05
3.53499e-05
3.54325e-05
3.55959e-05
3.49879e-05
3.51388e-05
3.52058e-05
3.52585e-05
3.53176e-05
3.53648e-05
3.53727e-05
3.51949e-05
3.52074e-05
3.5263e-05
3.53253e-05
3.52991e-05
3.53546e-05
3.5419e-05
3.55052e-05
3.54287e-05
3.56184e-05
3.51656e-05
3.53248e-05
3.54176e-05
3.5447e-05
3.5313e-05
3.53461e-05
3.54144e-05
3.55022e-05
3.55937e-05
3.56683e-05
3.57617e-05
3.58487e-05
3.5928e-05
3.60008e-05
3.60848e-05
3.50675e-05
3.53155e-05
3.53577e-05
3.52591e-05
3.51863e-05
3.51714e-05
3.51847e-05
3.52348e-05
3.53031e-05
3.53776e-05
3.54235e-05
3.54532e-05
3.54628e-05
3.54461e-05
3.53804e-05
3.54212e-05
3.54888e-05
3.56614e-05
3.49731e-05
3.51303e-05
3.51985e-05
3.52481e-05
3.53036e-05
3.53416e-05
3.53362e-05
3.52406e-05
3.52431e-05
3.52733e-05
3.53125e-05
3.53048e-05
3.53673e-05
3.54558e-05
3.55623e-05
3.5445e-05
3.5627e-05
3.51116e-05
3.52872e-05
3.53926e-05
3.54254e-05
3.53544e-05
3.53736e-05
3.54151e-05
3.54928e-05
3.55563e-05
3.56324e-05
3.57206e-05
3.58315e-05
3.59097e-05
3.60108e-05
3.6008e-05
3.53369e-05
3.55402e-05
3.54615e-05
3.52707e-05
3.51752e-05
3.51382e-05
3.51467e-05
3.52146e-05
3.53168e-05
3.53929e-05
3.54151e-05
3.54379e-05
3.54536e-05
3.54329e-05
3.54222e-05
3.54779e-05
3.55478e-05
3.56446e-05
3.49497e-05
3.51001e-05
3.51784e-05
3.5228e-05
3.52706e-05
3.53024e-05
3.53066e-05
3.52653e-05
3.52946e-05
3.53481e-05
3.53869e-05
3.53859e-05
3.5373e-05
3.54076e-05
3.54948e-05
3.53789e-05
3.55297e-05
3.50498e-05
3.52553e-05
3.53838e-05
3.54206e-05
3.53706e-05
3.53491e-05
3.54053e-05
3.55091e-05
3.55981e-05
3.56753e-05
3.57686e-05
3.58443e-05
3.59551e-05
3.59854e-05
3.60728e-05
3.47854e-05
3.574e-05
3.56985e-05
3.5398e-05
3.52377e-05
3.51886e-05
3.51667e-05
3.51862e-05
3.52511e-05
3.53095e-05
3.53506e-05
3.53807e-05
3.54055e-05
3.53924e-05
3.53941e-05
3.54511e-05
3.55679e-05
3.56688e-05
3.50711e-05
3.52249e-05
3.5226e-05
3.52225e-05
3.52636e-05
3.5291e-05
3.52832e-05
3.52523e-05
3.52725e-05
3.53197e-05
3.53689e-05
3.53995e-05
3.54208e-05
3.54761e-05
3.54991e-05
3.53304e-05
3.54355e-05
3.50457e-05
3.5233e-05
3.53699e-05
3.54214e-05
3.54296e-05
3.53428e-05
3.53723e-05
3.55229e-05
3.55938e-05
3.56898e-05
3.58194e-05
3.59067e-05
3.59407e-05
3.60221e-05
3.54616e-05
3.53558e-05
3.53875e-05
3.54001e-05
3.52816e-05
3.51706e-05
3.50791e-05
3.50531e-05
3.51408e-05
3.52603e-05
3.53259e-05
3.53472e-05
3.5366e-05
3.53868e-05
3.53962e-05
3.54258e-05
3.55095e-05
3.56038e-05
3.56497e-05
3.50233e-05
3.51725e-05
3.52399e-05
3.52685e-05
3.52686e-05
3.52837e-05
3.531e-05
3.53177e-05
3.53206e-05
3.53241e-05
3.53161e-05
3.53571e-05
3.53594e-05
3.54003e-05
3.55017e-05
3.53709e-05
3.55101e-05
3.5011e-05
3.52199e-05
3.53314e-05
3.54011e-05
3.54232e-05
3.54538e-05
3.55202e-05
3.55866e-05
3.56421e-05
3.56993e-05
3.57786e-05
3.5805e-05
3.58879e-05
3.58822e-05
3.60399e-05
3.51061e-05
3.54445e-05
3.54124e-05
3.52702e-05
3.51612e-05
3.51115e-05
3.51068e-05
3.51399e-05
3.52153e-05
3.53098e-05
3.53957e-05
3.54459e-05
3.54503e-05
3.54485e-05
3.54767e-05
3.55447e-05
3.56331e-05
3.57264e-05
3.49247e-05
3.50994e-05
3.51406e-05
3.51509e-05
3.52013e-05
3.52464e-05
3.52756e-05
3.53025e-05
3.53299e-05
3.53575e-05
3.53787e-05
3.54128e-05
3.5465e-05
3.55586e-05
3.5625e-05
3.54656e-05
3.55917e-05
3.50073e-05
3.52101e-05
3.52916e-05
3.5334e-05
3.53659e-05
3.53818e-05
3.54155e-05
3.55003e-05
3.55937e-05
3.56878e-05
3.57797e-05
3.58763e-05
3.5939e-05
3.60571e-05
3.59731e-05
3.5242e-05
3.53961e-05
3.53444e-05
3.52343e-05
3.51342e-05
3.50596e-05
3.50328e-05
3.50586e-05
3.51155e-05
3.52232e-05
3.52951e-05
3.53165e-05
3.53447e-05
3.53974e-05
3.54509e-05
3.55408e-05
3.56422e-05
3.57711e-05
3.4926e-05
3.50804e-05
3.52033e-05
3.52988e-05
3.53502e-05
3.53657e-05
3.53714e-05
3.53721e-05
3.53615e-05
3.53353e-05
3.53108e-05
3.53145e-05
3.53563e-05
3.54212e-05
3.55009e-05
3.53766e-05
3.55553e-05
3.49909e-05
3.52052e-05
3.5339e-05
3.54212e-05
3.54659e-05
3.55027e-05
3.55631e-05
3.56329e-05
3.56809e-05
3.57143e-05
3.57671e-05
3.58046e-05
3.58964e-05
3.59618e-05
3.60689e-05
3.53344e-05
3.53143e-05
3.51974e-05
3.51099e-05
3.50407e-05
3.49964e-05
3.49888e-05
3.50242e-05
3.51228e-05
3.52627e-05
3.53914e-05
3.54846e-05
3.55371e-05
3.55703e-05
3.55985e-05
3.5655e-05
3.57122e-05
3.57798e-05
3.48436e-05
3.49708e-05
3.50542e-05
3.50947e-05
3.51303e-05
3.51832e-05
3.52465e-05
3.52952e-05
3.5329e-05
3.53556e-05
3.53796e-05
3.5411e-05
3.54723e-05
3.55654e-05
3.56724e-05
3.55539e-05
3.5684e-05
3.49973e-05
3.51785e-05
3.5295e-05
3.53618e-05
3.54173e-05
3.54506e-05
3.54456e-05
3.54902e-05
3.55694e-05
3.56428e-05
3.57388e-05
3.58221e-05
3.59518e-05
3.60459e-05
3.62011e-05
3.49814e-05
3.51156e-05
3.51825e-05
3.51934e-05
3.51471e-05
3.50756e-05
3.49955e-05
3.49524e-05
3.5038e-05
3.52161e-05
3.53231e-05
3.53318e-05
3.53175e-05
3.53304e-05
3.53827e-05
3.54723e-05
3.55641e-05
3.57016e-05
3.48583e-05
3.50175e-05
3.51396e-05
3.52444e-05
3.53237e-05
3.53815e-05
3.54216e-05
3.5428e-05
3.53975e-05
3.5355e-05
3.53017e-05
3.53156e-05
3.53846e-05
3.54475e-05
3.55413e-05
3.542e-05
3.56011e-05
3.50091e-05
3.52105e-05
3.53601e-05
3.54655e-05
3.55262e-05
3.55394e-05
3.55303e-05
3.55878e-05
3.56872e-05
3.57857e-05
3.5881e-05
3.59457e-05
3.59997e-05
3.60347e-05
3.60495e-05
3.52992e-05
3.52542e-05
3.50475e-05
3.48932e-05
3.4827e-05
3.47697e-05
3.47701e-05
3.47718e-05
3.4926e-05
3.51767e-05
3.53517e-05
3.54258e-05
3.54572e-05
3.54866e-05
3.55272e-05
3.5589e-05
3.56484e-05
3.57408e-05
3.48257e-05
3.49599e-05
3.50734e-05
3.51603e-05
3.52355e-05
3.53047e-05
3.53423e-05
3.5366e-05
3.53799e-05
3.53747e-05
3.53467e-05
3.53868e-05
3.54445e-05
3.55022e-05
3.55889e-05
3.54966e-05
3.57356e-05
3.51939e-05
3.53863e-05
3.54827e-05
3.55389e-05
3.55691e-05
3.55744e-05
3.54789e-05
3.54531e-05
3.54541e-05
3.54967e-05
3.56018e-05
3.56985e-05
3.58243e-05
3.59342e-05
3.6116e-05
3.48876e-05
3.49288e-05
3.49245e-05
3.49439e-05
3.48634e-05
3.4822e-05
3.47251e-05
3.49402e-05
3.51026e-05
3.53967e-05
3.5527e-05
3.55203e-05
3.54761e-05
3.54241e-05
3.5437e-05
3.54902e-05
3.55647e-05
3.57116e-05
3.48953e-05
3.50643e-05
3.52026e-05
3.53088e-05
3.53737e-05
3.54047e-05
3.54544e-05
3.55322e-05
3.55951e-05
3.55549e-05
3.53474e-05
3.53495e-05
3.53634e-05
3.54161e-05
3.5485e-05
3.53727e-05
3.55239e-05
3.50373e-05
3.52338e-05
3.53611e-05
3.54711e-05
3.55798e-05
3.56516e-05
3.53562e-05
3.53441e-05
3.54028e-05
3.55095e-05
3.56653e-05
3.57935e-05
3.58933e-05
3.59451e-05
3.59733e-05
3.51699e-05
3.51758e-05
3.50555e-05
3.49528e-05
3.48757e-05
3.48248e-05
3.48574e-05
3.50286e-05
3.4859e-05
3.51985e-05
3.54253e-05
3.55578e-05
3.55813e-05
3.53716e-05
3.53566e-05
3.54489e-05
3.55884e-05
3.57769e-05
3.50921e-05
3.51979e-05
3.52534e-05
3.53003e-05
3.53646e-05
3.54206e-05
3.54446e-05
3.54589e-05
3.54902e-05
3.54438e-05
3.49736e-05
3.51462e-05
3.52513e-05
3.53457e-05
3.53755e-05
3.53018e-05
3.52984e-05
3.52393e-05
3.53973e-05
3.55397e-05
3.5635e-05
3.57264e-05
3.58989e-05
3.51578e-05
3.53008e-05
3.54036e-05
3.54931e-05
3.56023e-05
3.56983e-05
3.58173e-05
3.58923e-05
3.60366e-05
3.50254e-05
3.5074e-05
3.50611e-05
3.50047e-05
3.49266e-05
3.48892e-05
3.49351e-05
3.50158e-05
3.50969e-05
3.53298e-05
3.55026e-05
3.55823e-05
3.57288e-05
3.50777e-05
3.52027e-05
3.52574e-05
3.52978e-05
3.52744e-05
3.50769e-05
3.51376e-05
3.52558e-05
3.53724e-05
3.54522e-05
3.54691e-05
3.54508e-05
3.54726e-05
3.56782e-05
3.50982e-05
3.5108e-05
3.51447e-05
3.52024e-05
3.52871e-05
3.53486e-05
3.53504e-05
3.53345e-05
3.53235e-05
3.53901e-05
3.54973e-05
3.5606e-05
3.57184e-05
3.5911e-05
3.5119e-05
3.53001e-05
3.54021e-05
3.54621e-05
3.55337e-05
3.56412e-05
3.57781e-05
3.58879e-05
3.59493e-05
3.52473e-05
3.53273e-05
3.53324e-05
3.53122e-05
3.53041e-05
3.53081e-05
3.53204e-05
3.53597e-05
3.5418e-05
3.54934e-05
3.55643e-05
3.56399e-05
3.56693e-05
3.56057e-05
3.50093e-05
3.51418e-05
3.51964e-05
3.52189e-05
3.52211e-05
3.52254e-05
3.5265e-05
3.53416e-05
3.54442e-05
3.55615e-05
3.57162e-05
3.50061e-05
3.51168e-05
3.51836e-05
3.52213e-05
3.52426e-05
3.52818e-05
3.53182e-05
3.53543e-05
3.53951e-05
3.54467e-05
3.55051e-05
3.55723e-05
3.56507e-05
3.57766e-05
3.50122e-05
3.51809e-05
3.53307e-05
3.54663e-05
3.55881e-05
3.56849e-05
3.57675e-05
3.5831e-05
3.59192e-05
3.60007e-05
3.60992e-05
3.52419e-05
3.53256e-05
3.53301e-05
3.53087e-05
3.53027e-05
3.53055e-05
3.53145e-05
3.53505e-05
3.54081e-05
3.54867e-05
3.55625e-05
3.56405e-05
3.56663e-05
3.55971e-05
3.4998e-05
3.51339e-05
3.51929e-05
3.52199e-05
3.52241e-05
3.52306e-05
3.5271e-05
3.5347e-05
3.54494e-05
3.55668e-05
3.57215e-05
3.50073e-05
3.51172e-05
3.51827e-05
3.52223e-05
3.52456e-05
3.52864e-05
3.53253e-05
3.53585e-05
3.53955e-05
3.54458e-05
3.55055e-05
3.558e-05
3.56626e-05
3.57867e-05
3.50163e-05
3.51838e-05
3.53309e-05
3.54656e-05
3.5587e-05
3.56835e-05
3.5765e-05
3.58243e-05
3.59071e-05
3.59881e-05
3.60899e-05
3.52487e-05
3.53325e-05
3.53383e-05
3.53133e-05
3.53065e-05
3.53154e-05
3.5332e-05
3.53754e-05
3.54348e-05
3.55078e-05
3.55698e-05
3.56448e-05
3.56812e-05
3.56116e-05
3.5008e-05
3.51384e-05
3.51972e-05
3.52296e-05
3.52317e-05
3.5237e-05
3.52745e-05
3.53538e-05
3.54616e-05
3.5576e-05
3.57256e-05
3.50049e-05
3.51211e-05
3.51947e-05
3.52348e-05
3.52527e-05
3.52948e-05
3.53362e-05
3.53688e-05
3.54106e-05
3.54575e-05
3.5509e-05
3.55731e-05
3.56477e-05
3.57733e-05
3.501e-05
3.51936e-05
3.53481e-05
3.5484e-05
3.56013e-05
3.5695e-05
3.57736e-05
3.58356e-05
3.59266e-05
3.60098e-05
3.61076e-05
3.5232e-05
3.53292e-05
3.53383e-05
3.53065e-05
3.52963e-05
3.53001e-05
3.53137e-05
3.53588e-05
3.542e-05
3.54939e-05
3.55669e-05
3.56437e-05
3.56815e-05
3.56107e-05
3.50029e-05
3.51375e-05
3.52033e-05
3.52378e-05
3.52396e-05
3.52408e-05
3.52766e-05
3.53553e-05
3.54608e-05
3.55708e-05
3.57258e-05
3.49971e-05
3.51148e-05
3.51836e-05
3.52279e-05
3.52455e-05
3.52912e-05
3.53331e-05
3.53662e-05
3.54069e-05
3.54556e-05
3.55106e-05
3.55813e-05
3.56654e-05
3.57979e-05
3.50268e-05
3.52021e-05
3.53528e-05
3.54908e-05
3.56043e-05
3.56871e-05
3.5763e-05
3.58218e-05
3.5911e-05
3.59907e-05
3.60858e-05
3.52216e-05
3.53281e-05
3.53375e-05
3.53018e-05
3.52926e-05
3.53053e-05
3.53246e-05
3.53726e-05
3.54354e-05
3.5509e-05
3.55682e-05
3.56384e-05
3.56757e-05
3.56002e-05
3.4984e-05
3.51146e-05
3.51812e-05
3.52192e-05
3.52316e-05
3.52349e-05
3.52723e-05
3.53571e-05
3.54631e-05
3.5574e-05
3.57399e-05
3.50117e-05
3.51322e-05
3.52007e-05
3.52354e-05
3.52558e-05
3.52929e-05
3.5324e-05
3.53645e-05
3.54066e-05
3.54517e-05
3.55048e-05
3.55738e-05
3.56583e-05
3.57884e-05
3.50041e-05
3.51876e-05
3.53443e-05
3.54882e-05
3.56053e-05
3.56948e-05
3.577e-05
3.58271e-05
3.59165e-05
3.59934e-05
3.60888e-05
3.52144e-05
3.53377e-05
3.53394e-05
3.52867e-05
3.52659e-05
3.5269e-05
3.52925e-05
3.53523e-05
3.54244e-05
3.54934e-05
3.55559e-05
3.56314e-05
3.56801e-05
3.56067e-05
3.50052e-05
3.51463e-05
3.52201e-05
3.52485e-05
3.52435e-05
3.52409e-05
3.52782e-05
3.53521e-05
3.54579e-05
3.55708e-05
3.57405e-05
3.50029e-05
3.51276e-05
3.51957e-05
3.52273e-05
3.52311e-05
3.52693e-05
3.53046e-05
3.53464e-05
3.53955e-05
3.5453e-05
3.55092e-05
3.55773e-05
3.56657e-05
3.58029e-05
3.50203e-05
3.52005e-05
3.5361e-05
3.54953e-05
3.55983e-05
3.56685e-05
3.574e-05
3.58091e-05
3.59159e-05
3.59961e-05
3.60751e-05
3.52022e-05
3.53623e-05
3.53631e-05
3.53052e-05
3.5284e-05
3.52942e-05
3.53148e-05
3.53658e-05
3.54332e-05
3.54962e-05
3.55567e-05
3.56316e-05
3.56781e-05
3.55929e-05
3.49842e-05
3.51275e-05
3.52073e-05
3.52356e-05
3.5235e-05
3.52329e-05
3.52639e-05
3.53404e-05
3.54456e-05
3.55632e-05
3.57439e-05
3.50101e-05
3.51386e-05
3.52109e-05
3.52398e-05
3.52591e-05
3.5293e-05
3.53182e-05
3.53564e-05
3.53926e-05
3.54322e-05
3.54832e-05
3.5564e-05
3.56637e-05
3.58043e-05
3.50072e-05
3.51813e-05
3.53443e-05
3.54867e-05
3.5599e-05
3.56899e-05
3.57723e-05
3.58346e-05
3.59276e-05
3.59981e-05
3.60599e-05
3.51957e-05
3.53969e-05
3.53819e-05
3.52865e-05
3.52664e-05
3.52731e-05
3.52993e-05
3.53589e-05
3.54309e-05
3.54974e-05
3.55539e-05
3.5626e-05
3.56722e-05
3.55841e-05
3.49859e-05
3.51449e-05
3.52302e-05
3.52593e-05
3.5243e-05
3.52446e-05
3.52859e-05
3.53595e-05
3.54528e-05
3.55606e-05
3.5727e-05
3.49887e-05
3.51225e-05
3.51949e-05
3.52264e-05
3.52413e-05
3.52711e-05
3.53095e-05
3.53533e-05
3.54006e-05
3.54581e-05
3.55174e-05
3.55876e-05
3.56843e-05
3.58211e-05
3.50221e-05
3.51852e-05
3.53495e-05
3.54843e-05
3.55929e-05
3.56797e-05
3.57635e-05
3.58302e-05
3.59303e-05
3.59939e-05
3.60223e-05
3.51698e-05
3.54088e-05
3.53958e-05
3.5288e-05
3.52471e-05
3.5251e-05
3.52859e-05
3.53484e-05
3.54251e-05
3.54898e-05
3.55549e-05
3.56309e-05
3.56834e-05
3.5581e-05
3.50025e-05
3.51686e-05
3.52578e-05
3.52798e-05
3.52534e-05
3.52484e-05
3.52765e-05
3.53418e-05
3.54382e-05
3.55619e-05
3.57189e-05
3.49977e-05
3.51333e-05
3.52023e-05
3.52348e-05
3.52463e-05
3.52732e-05
3.53122e-05
3.53594e-05
3.53965e-05
3.5439e-05
3.54924e-05
3.55774e-05
3.56914e-05
3.58274e-05
3.50453e-05
3.52083e-05
3.53605e-05
3.55019e-05
3.55968e-05
3.56789e-05
3.57628e-05
3.58332e-05
3.59344e-05
3.5999e-05
3.5994e-05
3.52746e-05
3.54987e-05
3.54452e-05
3.53065e-05
3.52668e-05
3.52695e-05
3.53008e-05
3.53534e-05
3.54269e-05
3.5482e-05
3.55401e-05
3.56118e-05
3.56835e-05
3.55583e-05
3.5007e-05
3.51957e-05
3.52776e-05
3.52852e-05
3.52544e-05
3.52508e-05
3.52751e-05
3.53411e-05
3.54292e-05
3.55511e-05
3.56806e-05
3.49892e-05
3.51408e-05
3.52127e-05
3.52542e-05
3.5269e-05
3.5289e-05
3.53254e-05
3.53757e-05
3.54146e-05
3.54665e-05
3.55079e-05
3.55672e-05
3.56878e-05
3.58143e-05
3.50237e-05
3.51827e-05
3.5355e-05
3.54943e-05
3.56077e-05
3.5704e-05
3.57996e-05
3.58576e-05
3.5991e-05
3.59917e-05
3.59762e-05
3.50712e-05
3.55247e-05
3.55121e-05
3.53354e-05
3.52724e-05
3.52685e-05
3.52905e-05
3.53267e-05
3.53944e-05
3.54597e-05
3.55208e-05
3.55889e-05
3.56685e-05
3.55098e-05
3.50086e-05
3.52104e-05
3.53059e-05
3.53267e-05
3.52784e-05
3.52796e-05
3.53028e-05
3.53535e-05
3.54444e-05
3.55751e-05
3.56549e-05
3.50312e-05
3.517e-05
3.52217e-05
3.52371e-05
3.52433e-05
3.52794e-05
3.53239e-05
3.53689e-05
3.54001e-05
3.54393e-05
3.54793e-05
3.55672e-05
3.57097e-05
3.58234e-05
3.50838e-05
3.52065e-05
3.53635e-05
3.5502e-05
3.56201e-05
3.57153e-05
3.57993e-05
3.58368e-05
3.5968e-05
3.60385e-05
3.57901e-05
3.52292e-05
3.53912e-05
3.54098e-05
3.53005e-05
3.52557e-05
3.52554e-05
3.52868e-05
3.53378e-05
3.54021e-05
3.5468e-05
3.55466e-05
3.56132e-05
3.56721e-05
3.5526e-05
3.50398e-05
3.52178e-05
3.52877e-05
3.52904e-05
3.52475e-05
3.52558e-05
3.52986e-05
3.5348e-05
3.54354e-05
3.55548e-05
3.56494e-05
3.50436e-05
3.51729e-05
3.52411e-05
3.52679e-05
3.52562e-05
3.52731e-05
3.53267e-05
3.53861e-05
3.54201e-05
3.5455e-05
3.54592e-05
3.55267e-05
3.5648e-05
3.57705e-05
3.50395e-05
3.52158e-05
3.53762e-05
3.55091e-05
3.56163e-05
3.57034e-05
3.57949e-05
3.58537e-05
3.59793e-05
3.59533e-05
3.59426e-05
3.51944e-05
3.54522e-05
3.54353e-05
3.53278e-05
3.52778e-05
3.52667e-05
3.52862e-05
3.53269e-05
3.53922e-05
3.54616e-05
3.55439e-05
3.56113e-05
3.56725e-05
3.55507e-05
3.50544e-05
3.52499e-05
3.53251e-05
3.53261e-05
3.52433e-05
3.52543e-05
3.52831e-05
3.53285e-05
3.54264e-05
3.55499e-05
3.56648e-05
3.50053e-05
3.51697e-05
3.52472e-05
3.52759e-05
3.52509e-05
3.52932e-05
3.53532e-05
3.54115e-05
3.54449e-05
3.54786e-05
3.54559e-05
3.55288e-05
3.56542e-05
3.5792e-05
3.50494e-05
3.52254e-05
3.53747e-05
3.55039e-05
3.56078e-05
3.56978e-05
3.57919e-05
3.58618e-05
3.59548e-05
3.60491e-05
3.59836e-05
3.52023e-05
3.54336e-05
3.54261e-05
3.53381e-05
3.52903e-05
3.52701e-05
3.52761e-05
3.53106e-05
3.53746e-05
3.54493e-05
3.55127e-05
3.55601e-05
3.56397e-05
3.55691e-05
3.5052e-05
3.52527e-05
3.53429e-05
3.53432e-05
3.52334e-05
3.52492e-05
3.52953e-05
3.5351e-05
3.54439e-05
3.55564e-05
3.56922e-05
3.50035e-05
3.51702e-05
3.52592e-05
3.53044e-05
3.52521e-05
3.53059e-05
3.53622e-05
3.5425e-05
3.54541e-05
3.54855e-05
3.54241e-05
3.5499e-05
3.56185e-05
3.57687e-05
3.50627e-05
3.52573e-05
3.54182e-05
3.55479e-05
3.56369e-05
3.5713e-05
3.57981e-05
3.58563e-05
3.59539e-05
3.59959e-05
3.60101e-05
3.52528e-05
3.54044e-05
3.53795e-05
3.5309e-05
3.52718e-05
3.52624e-05
3.52795e-05
3.53194e-05
3.53862e-05
3.54531e-05
3.55253e-05
3.55827e-05
3.56553e-05
3.56438e-05
3.51098e-05
3.53003e-05
3.53807e-05
3.53871e-05
3.52027e-05
3.52307e-05
3.5271e-05
3.53199e-05
3.54094e-05
3.55108e-05
3.563e-05
3.49951e-05
3.51591e-05
3.52586e-05
3.53191e-05
3.5218e-05
3.53168e-05
3.54116e-05
3.54973e-05
3.55309e-05
3.55572e-05
3.54034e-05
3.5474e-05
3.55898e-05
3.57399e-05
3.50691e-05
3.52494e-05
3.5384e-05
3.54863e-05
3.55812e-05
3.56709e-05
3.57814e-05
3.58544e-05
3.59482e-05
3.60352e-05
3.61049e-05
3.51745e-05
3.53446e-05
3.53826e-05
3.5346e-05
3.53113e-05
3.52934e-05
3.52905e-05
3.53113e-05
3.53619e-05
3.54405e-05
3.54985e-05
3.55258e-05
3.55703e-05
3.55791e-05
3.51349e-05
3.52814e-05
3.53741e-05
3.54077e-05
3.51214e-05
3.51746e-05
3.52346e-05
3.53195e-05
3.54368e-05
3.55461e-05
3.56567e-05
3.50951e-05
3.52038e-05
3.52929e-05
3.53771e-05
3.51821e-05
3.53207e-05
3.53893e-05
3.54561e-05
3.54856e-05
3.55395e-05
3.52885e-05
3.54145e-05
3.55314e-05
3.5673e-05
3.51474e-05
3.52829e-05
3.54114e-05
3.55302e-05
3.56393e-05
3.57308e-05
3.5834e-05
3.58984e-05
3.59691e-05
3.60406e-05
3.61175e-05
3.53077e-05
3.5391e-05
3.53349e-05
3.52821e-05
3.52449e-05
3.52151e-05
3.52103e-05
3.52477e-05
3.53177e-05
3.53827e-05
3.54281e-05
3.54914e-05
3.55765e-05
3.56042e-05
3.53522e-05
3.54057e-05
3.54746e-05
3.55558e-05
3.50349e-05
3.51782e-05
3.52412e-05
3.52912e-05
3.53747e-05
3.54533e-05
3.54515e-05
3.50976e-05
3.51706e-05
3.52645e-05
3.53319e-05
3.52359e-05
3.53389e-05
3.54196e-05
3.54936e-05
3.55384e-05
3.569e-05
3.52321e-05
3.54238e-05
3.55136e-05
3.55612e-05
3.52419e-05
3.53131e-05
3.54199e-05
3.54969e-05
3.55784e-05
3.56774e-05
3.57797e-05
3.58273e-05
3.59116e-05
3.59869e-05
3.61398e-05
3.51362e-05
3.52612e-05
3.53129e-05
3.53247e-05
3.53205e-05
3.53012e-05
3.52867e-05
3.52967e-05
3.53399e-05
3.53969e-05
3.5436e-05
3.54689e-05
3.5512e-05
3.54994e-05
3.53492e-05
3.53565e-05
3.54308e-05
3.55697e-05
3.49681e-05
3.51304e-05
3.52118e-05
3.52971e-05
3.53767e-05
3.54159e-05
3.54012e-05
3.52097e-05
3.52472e-05
3.53211e-05
3.53546e-05
3.52837e-05
3.53494e-05
3.5428e-05
3.55043e-05
3.55144e-05
3.56984e-05
3.51261e-05
3.53274e-05
3.54059e-05
3.54374e-05
3.52905e-05
3.53154e-05
3.53485e-05
3.5429e-05
3.55812e-05
3.57339e-05
3.58568e-05
3.59148e-05
3.59724e-05
3.60457e-05
3.61034e-05
3.52832e-05
3.53773e-05
3.53463e-05
3.52804e-05
3.52271e-05
3.51725e-05
3.51611e-05
3.52067e-05
3.52736e-05
3.53426e-05
3.54001e-05
3.54592e-05
3.55154e-05
3.55068e-05
3.54106e-05
3.54094e-05
3.54802e-05
3.56501e-05
3.49847e-05
3.51192e-05
3.51784e-05
3.5251e-05
3.53333e-05
3.53673e-05
3.53086e-05
3.51999e-05
3.523e-05
3.52745e-05
3.52842e-05
3.52719e-05
3.53567e-05
3.54056e-05
3.54274e-05
3.54639e-05
3.57118e-05
3.51286e-05
3.53538e-05
3.54303e-05
3.54273e-05
3.53299e-05
3.53541e-05
3.54077e-05
3.55018e-05
3.56097e-05
3.56969e-05
3.57617e-05