/*--------------------------------*- C++ -*----------------------------------*\
| =========                 |                                                 |
| \\      /  F ield         | OpenFOAM: The Open Source CFD Toolbox           |
|  \\    /   O peration     | Version:  2.3.0                                 |
|   \\  /    A nd           | Web:      www.OpenFOAM.org                      |
|    \\/     M anipulation  |                                                 |
\*---------------------------------------------------------------------------*/
FoamFile
{
    version     2.0;
    format      ascii;
    class       volVectorField;
    location    "500";
    object      U;
}
// * * * * * * * * * * * * * * * * * * * * * * * * * * * * * * * * * * * * * //

dimensions      [0 1 -1 0 0 0 0];

internalField   nonuniform List<vector> 
90000
(
(0.00793947 -5.31271e-05 -0.00101669)
(0.00775618 6.30457e-05 -0.00112164)
(0.00684642 0.000120974 -0.00158704)
(0.00633159 7.97217e-05 -0.00238178)
(0.00706729 1.51835e-05 -0.00198701)
(0.0085772 -5.35702e-06 -0.000137953)
(0.00945099 4.40311e-05 0.00128688)
(0.00971546 6.56329e-05 0.00190257)
(0.00996986 8.11948e-05 0.00262894)
(0.0101199 0.00011573 0.00290819)
(0.0107462 0.000151828 0.00121757)
(0.0116699 0.000197703 -0.00254715)
(0.0129839 0.00018237 -0.00559144)
(0.0159042 -2.43973e-05 -0.00505904)
(0.0187907 -0.000107154 -0.00199111)
(0.0190047 -6.3664e-05 0.00183381)
(0.0161647 -2.42813e-05 0.00512128)
(0.0123004 -7.06875e-05 0.00676517)
(0.00969594 -0.000157777 0.00608379)
(0.00906953 -0.000198813 0.00388359)
(0.00917324 -0.000165687 0.00163784)
(0.00873856 -5.99608e-05 0.000135893)
(0.00789857 9.20204e-07 -0.000569152)
(0.00728633 2.48741e-05 -0.000671447)
(0.00701076 9.01544e-05 -0.000742364)
(0.00692659 0.000147448 -0.00096662)
(0.00705782 0.000131478 -0.000941093)
(0.00755137 5.84694e-05 -0.000719359)
(0.00845891 -3.27709e-05 -0.000275045)
(0.0091584 -4.88048e-05 0.000723512)
(0.00900317 -4.96057e-06 0.0016419)
(0.00842307 9.98272e-06 0.00195439)
(0.0082021 -5.39565e-06 0.00171286)
(0.00817959 -9.56245e-06 0.000967358)
(0.00802759 -9.75976e-06 -2.56279e-05)
(0.00799201 -7.02955e-05 -0.000570342)
(0.00823037 -9.53104e-05 -0.000237618)
(0.00817299 -3.97991e-05 0.000472079)
(0.00762198 2.21187e-05 0.000518366)
(0.00720137 4.03328e-05 -2.3522e-06)
(0.00733134 3.06404e-05 -0.000378364)
(0.00748053 7.17335e-05 -0.000831625)
(0.00699503 0.000187579 -0.00164711)
(0.00588569 0.000256078 -0.00232439)
(0.0049602 0.000199182 -0.00273656)
(0.00512942 6.75222e-05 -0.00308803)
(0.00601878 -6.67032e-05 -0.00305928)
(0.00661995 -0.000114691 -0.00243224)
(0.00687982 -0.000126505 -0.00154188)
(0.00736716 -0.000116895 -0.0010266)
(0.0212074 -4.09281e-05 -0.00133077)
(0.0207482 0.000560765 -0.00241473)
(0.0198397 0.000774613 -0.00460516)
(0.0197982 0.000511899 -0.00688804)
(0.0218085 0.000145148 -0.00592235)
(0.0257642 3.59284e-05 -0.00125385)
(0.0285981 0.000247734 0.00288642)
(0.0294848 0.000430866 0.00497934)
(0.0300857 0.000578571 0.00707144)
(0.0296702 0.00081892 0.00836185)
(0.0292001 0.00101638 0.00455569)
(0.0311728 0.00106796 -0.0041899)
(0.0362798 0.00039472 -0.00978002)
(0.0458205 -0.0010825 -0.00850767)
(0.0554437 -0.00153798 -0.00490952)
(0.0606811 -0.000837717 0.000513804)
(0.0582306 -0.000310777 0.00759549)
(0.0485079 -0.000422455 0.0126127)
(0.0371026 -0.00074356 0.012445)
(0.029863 -0.00089083 0.00808172)
(0.0269103 -0.000621509 0.00284119)
(0.025076 -7.03009e-05 -0.000871505)
(0.0230884 0.000246012 -0.00257512)
(0.0214261 0.000394806 -0.00276996)
(0.0207808 0.000613543 -0.00259539)
(0.0212266 0.000705028 -0.0024446)
(0.0222625 0.000467481 -0.00165995)
(0.0234109 7.74903e-05 -0.000464018)
(0.0247052 -0.000217541 0.00106037)
(0.0258821 -0.000131786 0.00336332)
(0.0264801 9.30621e-05 0.00529935)
(0.0265326 0.000115319 0.00580141)
(0.0259933 -6.21166e-05 0.00508629)
(0.0247752 -0.000145895 0.0033494)
(0.0238599 -0.000158716 0.0009912)
(0.0236807 -0.000327227 -0.00067638)
(0.0236406 -0.000304235 -0.000707308)
(0.0229194 3.43471e-05 5.35307e-05)
(0.0220286 0.000342575 -0.000241973)
(0.0220372 0.00045096 -0.00162806)
(0.0228828 0.000512483 -0.00305435)
(0.0232936 0.00081287 -0.00456903)
(0.0224502 0.00129778 -0.00616426)
(0.0207847 0.00145258 -0.00703251)
(0.0198082 0.00103036 -0.00719566)
(0.0203166 0.000308802 -0.00706075)
(0.0209473 -0.000299468 -0.00611772)
(0.0207419 -0.000498595 -0.00424869)
(0.0204754 -0.000554639 -0.00222677)
(0.0208243 -0.000454503 -0.00113248)
(0.0328191 3.40675e-05 -0.000535281)
(0.0322869 0.00131116 -0.00213154)
(0.0322416 0.00175503 -0.00579738)
(0.0331715 0.00123116 -0.0104646)
(0.0351383 0.000399771 -0.0114581)
(0.0395576 -3.10642e-05 -0.00609553)
(0.0444581 0.000369516 0.000883771)
(0.0460621 0.000863724 0.00496302)
(0.0480814 0.0011428 0.00868624)
(0.049679 0.00173871 0.0130066)
(0.0465067 0.00227592 0.0110212)
(0.0466221 0.00226206 0.00082926)
(0.0544918 0.000751408 -0.0049832)
(0.0675041 -0.00241059 -0.00244063)
(0.0790099 -0.00425784 -0.00170469)
(0.0881254 -0.00359369 -0.00279267)
(0.0975955 -0.00175747 0.000723956)
(0.0973789 -0.000631748 0.00833589)
(0.0806239 -0.000794929 0.0130598)
(0.0593992 -0.00136598 0.0112547)
(0.0465674 -0.00113829 0.00524072)
(0.0421133 -5.49138e-05 -0.000752068)
(0.0397559 0.000718913 -0.00432927)
(0.037039 0.00112691 -0.00545716)
(0.0354056 0.00148971 -0.00562766)
(0.035944 0.00150508 -0.00551441)
(0.0375983 0.000905782 -0.00397006)
(0.0387434 7.51802e-05 -0.00121539)
(0.0392787 -0.00047576 0.00181726)
(0.0403396 -0.000264696 0.00546138)
(0.0422499 0.000230783 0.00867268)
(0.044497 0.000456674 0.00970874)
(0.0454625 0.000209814 0.00866975)
(0.0433416 -0.000159132 0.00663203)
(0.0405084 -0.000413185 0.00365873)
(0.0389285 -0.000764684 0.000631988)
(0.0380457 -0.00061854 -0.000786699)
(0.0368785 0.000161014 -0.000658528)
(0.03595 0.000838976 -0.00109279)
(0.0365386 0.00104685 -0.00278697)
(0.0386231 0.00113068 -0.00486558)
(0.0405777 0.00174473 -0.00723642)
(0.0411966 0.00285369 -0.00978954)
(0.0405513 0.00340961 -0.0115366)
(0.040204 0.00273334 -0.0120947)
(0.0404589 0.00125199 -0.0115113)
(0.0389465 -0.000141497 -0.00925892)
(0.0361074 -0.000686974 -0.00571546)
(0.0341545 -0.000941857 -0.00232966)
(0.0333361 -0.00081951 -0.000481808)
(0.0431972 6.77668e-05 0.000675777)
(0.0418509 0.00199645 -0.000547848)
(0.0420843 0.00280686 -0.00453335)
(0.0442394 0.00206212 -0.0111663)
(0.0470638 0.000843853 -0.0156273)
(0.0503903 -5.56162e-05 -0.0127908)
(0.0551671 0.000475387 -0.00462836)
(0.0570455 0.00136996 0.0013719)
(0.0593517 0.00137602 0.00601829)
(0.0660469 0.00207066 0.0140015)
(0.0649332 0.00352151 0.0163955)
(0.0607915 0.003567 0.0101398)
(0.0680038 0.00109838 0.00745728)
(0.0813553 -0.00303296 0.0103182)
(0.0935478 -0.00532978 0.00817631)
(0.0984592 -0.00586862 0.000401899)
(0.102485 -0.00545352 -0.00379575)
(0.117504 -0.00317164 -0.00114877)
(0.123458 -0.000956705 0.00484237)
(0.101499 -0.000855391 0.00896061)
(0.0726502 -0.00126457 0.00734508)
(0.0588925 -0.000339802 0.00163065)
(0.0560644 0.000924784 -0.00392007)
(0.0545999 0.00195448 -0.0072759)
(0.0528445 0.00273721 -0.00930766)
(0.0526274 0.00271041 -0.0108499)
(0.0535947 0.00163064 -0.00986401)
(0.0537491 0.000190455 -0.00539071)
(0.0524179 -0.000736865 0.000317868)
(0.0519164 -0.00050201 0.00599855)
(0.0537043 0.000184308 0.0107053)
(0.0572367 0.000734873 0.0128188)
(0.061485 0.000731455 0.011777)
(0.0629325 0.000209819 0.00945207)
(0.0602943 -0.000496251 0.00690908)
(0.055767 -0.00131888 0.0036806)
(0.0515849 -0.00127524 0.000905041)
(0.0488968 -2.55586e-05 -0.000295571)
(0.047756 0.00123823 -0.00110662)
(0.0482238 0.00170024 -0.0024913)
(0.0507192 0.00171038 -0.00455269)
(0.0541226 0.00236656 -0.00751384)
(0.0566555 0.00396832 -0.0109435)
(0.0586222 0.00512405 -0.0139085)
(0.0623659 0.00477955 -0.0164439)
(0.0660826 0.00329446 -0.0175735)
(0.0628041 0.00138466 -0.0148852)
(0.0547326 6.7494e-05 -0.00905586)
(0.0488595 -0.000795237 -0.00326631)
(0.04555 -0.00101642 4.35656e-05)
(0.0531045 0.000392142 0.001574)
(0.0501033 0.00258702 0.00134509)
(0.049312 0.00383413 -0.0020105)
(0.0508768 0.00279634 -0.0089621)
(0.0546181 0.00114743 -0.0155093)
(0.0590504 0.000107048 -0.0167331)
(0.0631102 0.0008526 -0.0104122)
(0.0643268 0.00237311 -0.00357033)
(0.0651316 0.00186811 -2.4364e-05)
(0.0742171 0.00130425 0.00805342)
(0.0793278 0.00370488 0.0160035)
(0.0784306 0.00467801 0.01689)
(0.0865549 0.00105295 0.0168653)
(0.0933583 -0.00442814 0.018001)
(0.0994927 -0.00622924 0.0150983)
(0.109902 -0.00522652 0.00340344)
(0.107355 -0.00659494 -0.00507085)
(0.104716 -0.00791387 -0.00488164)
(0.125711 -0.00436227 -0.00352783)
(0.132546 -0.00107063 -0.000141454)
(0.105296 -0.000550862 0.00417301)
(0.0777185 -0.000352471 0.00361898)
(0.0683102 0.000535845 -0.000813235)
(0.0683748 0.00201181 -0.00570017)
(0.0709063 0.0038523 -0.0106384)
(0.0737063 0.00450665 -0.015891)
(0.0742486 0.00306789 -0.0180866)
(0.0712891 0.000702646 -0.0135899)
(0.0660056 -0.000865654 -0.00471733)
(0.0622776 -0.000748655 0.00411632)
(0.0621155 -4.47548e-05 0.0105896)
(0.0645286 0.000711059 0.0138161)
(0.0691922 0.000932644 0.0132713)
(0.0757549 0.000313877 0.0102066)
(0.0800275 -0.000592166 0.00776365)
(0.0768572 -0.00161059 0.00590876)
(0.0677732 -0.00189256 0.0036251)
(0.0600993 -0.000591297 0.0016138)
(0.0567645 0.00126747 2.81797e-05)
(0.0566022 0.00228784 -0.00106375)
(0.058691 0.00230449 -0.00252013)
(0.0629121 0.00261728 -0.00583733)
(0.0673668 0.00428984 -0.0101535)
(0.070879 0.00582763 -0.013919)
(0.0767569 0.00563354 -0.0176649)
(0.0864209 0.00470233 -0.0215146)
(0.0889981 0.00377714 -0.0215055)
(0.0784595 0.00250378 -0.0152724)
(0.0661874 0.000946066 -0.00650321)
(0.0583451 -0.000237796 -0.000484231)
(0.0628333 0.00157713 0.00153122)
(0.0578001 0.00326312 0.0029966)
(0.055365 0.00482301 0.000497271)
(0.0551883 0.00356287 -0.00560538)
(0.0580057 0.00122462 -0.0116928)
(0.0636975 6.87868e-05 -0.0158107)
(0.0687482 0.00135833 -0.0133327)
(0.0697315 0.00368359 -0.00656381)
(0.0700192 0.00305207 -0.00492921)
(0.0755092 0.000959547 -0.0036153)
(0.0818192 0.00269566 0.00640403)
(0.0894272 0.00411543 0.0153705)
(0.106164 0.000926737 0.0138212)
(0.111098 -0.00438132 0.0108293)
(0.100384 -0.00777269 0.0135315)
(0.110092 -0.0059033 0.00505729)
(0.12516 -0.0045025 -0.00691829)
(0.111145 -0.00850422 -0.00579956)
(0.10675 -0.00988641 -0.00330626)
(0.13183 -0.00479452 -0.00655403)
(0.128857 -0.000706289 -0.00345282)
(0.0998446 0.000282428 0.00154072)
(0.079956 0.000287307 0.00179024)
(0.0753052 0.00115495 -0.00135795)
(0.0797535 0.00350389 -0.00682018)
(0.0904428 0.00563464 -0.0153873)
(0.0983804 0.00516135 -0.0231418)
(0.0945703 0.00226089 -0.0223137)
(0.082845 -0.000459894 -0.0124055)
(0.07337 -0.00085047 -0.000529388)
(0.0694311 -0.000277676 0.0080312)
(0.0689447 0.000597812 0.0125612)
(0.0711985 0.000952538 0.0132468)
(0.0781445 -0.000215009 0.00968274)
(0.0895656 -0.00164841 0.00537867)
(0.094809 -0.00221086 0.00438196)
(0.0861459 -0.00198542 0.00475917)
(0.0728361 -0.000808667 0.00384249)
(0.0648921 0.00116471 0.00198407)
(0.0631992 0.00252632 0.000918839)
(0.0656852 0.00263876 0.000344707)
(0.0705281 0.00243066 -0.00268289)
(0.0764921 0.00365686 -0.0079507)
(0.08149 0.00541208 -0.0127285)
(0.0879376 0.00519824 -0.0171236)
(0.0987075 0.00436623 -0.0223132)
(0.107178 0.00476722 -0.0253582)
(0.100929 0.00516979 -0.0215823)
(0.0852367 0.00422413 -0.0119069)
(0.0717713 0.00227706 -0.00302104)
(0.0719232 0.00379705 0.000109262)
(0.0646509 0.00425593 0.00390494)
(0.060255 0.00569192 0.00265409)
(0.0591571 0.00432846 -0.00174663)
(0.0616458 0.00154717 -0.00606243)
(0.0670791 -0.000198543 -0.0115028)
(0.0718722 0.00149003 -0.0128936)
(0.0735547 0.00465487 -0.00693868)
(0.0748145 0.00440941 -0.00679989)
(0.0760201 0.00203175 -0.0123424)
(0.0776943 0.00215639 -0.00502464)
(0.0856571 0.00162133 0.00619894)
(0.10595 -0.0006499 0.00099937)
(0.122722 -0.00249944 -0.00565411)
(0.111012 -0.00625672 0.00483516)
(0.102317 -0.00782698 0.00694048)
(0.124011 -0.00482521 -0.00825361)
(0.12823 -0.00557504 -0.0115755)
(0.104022 -0.0116247 -0.000793828)
(0.113217 -0.0106893 -0.00292356)
(0.133451 -0.0035889 -0.00798608)
(0.119342 0.000472854 -0.0036117)
(0.0948189 0.000485844 0.00108259)
(0.081901 0.000289111 0.00208304)
(0.0817533 0.00203285 -0.000583991)
(0.0933438 0.00448162 -0.00874335)
(0.110944 0.00563952 -0.0204441)
(0.115468 0.00409571 -0.0255871)
(0.101919 0.000825263 -0.0188368)
(0.0858496 -0.000548591 -0.00652492)
(0.0766737 -0.000233909 0.00365357)
(0.0724293 0.000700229 0.00990461)
(0.0718133 0.0012004 0.012684)
(0.0759034 -0.000690422 0.01052)
(0.0877172 -0.00349497 0.00441917)
(0.100685 -0.00394117 0.00147614)
(0.099262 -0.00225216 0.00353206)
(0.0852813 -0.00026031 0.00507515)
(0.0737254 0.0015425 0.00394299)
(0.0700102 0.00250826 0.00324117)
(0.0722285 0.00255518 0.00396812)
(0.077531 0.00206673 0.00236606)
(0.0847666 0.00242365 -0.00355043)
(0.0919154 0.00406022 -0.0102784)
(0.0994387 0.00412032 -0.0162479)
(0.108539 0.00358405 -0.0221733)
(0.117696 0.00495153 -0.0266999)
(0.115733 0.0070848 -0.0252771)
(0.100324 0.00773999 -0.0167151)
(0.0836994 0.00606707 -0.00688354)
(0.0786459 0.00643303 -0.00346826)
(0.0706925 0.0054569 0.00264289)
(0.0648841 0.0062704 0.00435122)
(0.0637383 0.00471284 0.00257789)
(0.0672162 0.00201368 -0.000170303)
(0.0726002 -6.09267e-05 -0.00554577)
(0.074873 0.00127556 -0.00926986)
(0.0756995 0.00496058 -0.00605897)
(0.0784142 0.00550588 -0.0074134)
(0.0799237 0.00321999 -0.013834)
(0.0783751 0.00214526 -0.00950599)
(0.0796361 -0.000211833 -0.0025601)
(0.0936599 -0.00292111 -0.0101468)
(0.119221 -0.00227656 -0.0174256)
(0.122976 -0.00325394 -0.00352153)
(0.104941 -0.0073291 0.0082894)
(0.112691 -0.00698587 -0.00561306)
(0.130522 -0.00445446 -0.0183047)
(0.117392 -0.00936659 -0.00797667)
(0.101861 -0.0147937 0.00361696)
(0.122496 -0.00904888 -0.00345174)
(0.129855 -0.00104338 -0.0066593)
(0.112688 0.000709251 -0.0020747)
(0.093915 -0.000388437 0.00273377)
(0.0862672 0.000298302 0.00374037)
(0.0921179 0.0022928 -0.00241485)
(0.10793 0.00399464 -0.0139396)
(0.119397 0.00406393 -0.0213709)
(0.11389 0.00183587 -0.0199687)
(0.0979042 0.000196102 -0.0117058)
(0.0845476 0.00028836 -0.00157973)
(0.0766861 0.00120257 0.00682302)
(0.0734349 0.0018628 0.012408)
(0.0745984 -0.000433027 0.0134119)
(0.0822298 -0.00490772 0.00866088)
(0.0964024 -0.00644088 0.00308987)
(0.103325 -0.00354519 0.00290882)
(0.0943188 0.00028143 0.00557658)
(0.0821229 0.0027357 0.00618785)
(0.0769257 0.00330947 0.00598614)
(0.0778728 0.00278731 0.00739673)
(0.0824233 0.00211512 0.00771781)
(0.0902322 0.00165952 0.00258309)
(0.100075 0.00230161 -0.0062028)
(0.108407 0.00233417 -0.0153083)
(0.1151 0.00271735 -0.0225364)
(0.121826 0.00488281 -0.0271603)
(0.120066 0.00832304 -0.0263367)
(0.1048 0.0109367 -0.0187364)
(0.0887327 0.0100782 -0.0103188)
(0.0855381 0.00901419 -0.0126759)
(0.0781831 0.00689985 -0.00589916)
(0.0723583 0.00616224 5.68991e-05)
(0.0715461 0.00374393 0.00251965)
(0.0759573 0.00160545 0.00246328)
(0.0812309 0.000419549 -0.000965624)
(0.0795924 0.00156661 -0.00517643)
(0.0765944 0.00496639 -0.00509205)
(0.0807418 0.00579771 -0.00633153)
(0.0863445 0.00412909 -0.0108269)
(0.0850972 0.00322946 -0.00956526)
(0.0823223 -0.000124733 -0.00480074)
(0.0888653 -0.00559255 -0.00817683)
(0.112779 -0.00477102 -0.0148925)
(0.127618 -0.00173723 -0.0057205)
(0.113207 -0.00454295 0.00750199)
(0.103794 -0.00813337 0.00109256)
(0.121524 -0.00595714 -0.0165531)
(0.127994 -0.0075371 -0.0169669)
(0.110167 -0.0147587 -0.000188305)
(0.111102 -0.0140407 0.00357019)
(0.128789 -0.0047075 -0.00384259)
(0.128683 0.000131859 -0.00378065)
(0.113215 -0.000767518 0.00161592)
(0.098293 -0.00103172 0.00414662)
(0.0955007 0.000906745 -0.00031845)
(0.100653 0.00293296 -0.00765388)
(0.106971 0.00283455 -0.0110065)
(0.109766 0.0011827 -0.0132265)
(0.103814 0.000686978 -0.0130582)
(0.0923013 0.00138541 -0.00667134)
(0.0820801 0.00243234 0.00305718)
(0.0763127 0.00305244 0.0114668)
(0.0755438 0.00043604 0.0151144)
(0.0789789 -0.00511386 0.0137823)
(0.0889721 -0.00819253 0.00940301)
(0.0999539 -0.0052824 0.00625674)
(0.0980851 0.000171846 0.0068811)
(0.0886746 0.00393021 0.00772107)
(0.0832766 0.00502805 0.00825249)
(0.0823516 0.0041616 0.0106128)
(0.0857089 0.00234786 0.0121658)
(0.0946227 0.000449475 0.00790442)
(0.105327 3.14767e-05 -0.0020477)
(0.111264 0.00114738 -0.0132272)
(0.115 0.00337323 -0.0210065)
(0.120641 0.00656746 -0.0245751)
(0.117477 0.0104756 -0.0230119)
(0.101694 0.0140351 -0.0176674)
(0.0901457 0.013361 -0.0149395)
(0.096801 0.00889108 -0.0198943)
(0.094 0.00677906 -0.0167483)
(0.0908325 0.00485465 -0.0109944)
(0.0901204 0.00123744 -0.0061283)
(0.0914833 -0.000138238 -0.00274791)
(0.0932363 0.000851884 -0.00264506)
(0.086628 0.00258073 -0.00472806)
(0.0793324 0.00466921 -0.00395565)
(0.0831438 0.00478206 -0.00286922)
(0.0907362 0.00435881 -0.00670621)
(0.0928431 0.00488306 -0.00923002)
(0.0918053 0.00112793 -0.00604889)
(0.0930066 -0.00727728 -0.00494416)
(0.10903 -0.00813856 -0.00809075)
(0.127424 -0.00178852 -0.0036941)
(0.120683 -0.000998389 0.00510522)
(0.103579 -0.00614503 0.0036387)
(0.109581 -0.00754231 -0.00982537)
(0.126875 -0.00739527 -0.0187398)
(0.123094 -0.0123234 -0.00966653)
(0.110824 -0.0151863 0.00189537)
(0.121584 -0.00893968 -0.000452365)
(0.136251 -0.00239595 -0.00238299)
(0.132861 -0.00164285 0.00107338)
(0.114466 -0.00150561 0.00243211)
(0.100366 0.00158782 -8.50464e-06)
(0.0947988 0.00452558 -0.000146739)
(0.0961742 0.00268899 0.00284235)
(0.101444 -0.00154472 -0.000565872)
(0.103151 -0.00116374 -0.00839915)
(0.097424 0.00195542 -0.00903235)
(0.0878686 0.00417108 -0.00121041)
(0.0819588 0.00447865 0.00830849)
(0.0812261 0.00101752 0.0133954)
(0.0815517 -0.00539628 0.0141491)
(0.0851194 -0.00904143 0.0139089)
(0.0948817 -0.00657741 0.01188)
(0.0984364 -0.000448599 0.00993763)
(0.0928019 0.00483966 0.00942704)
(0.0868675 0.00709219 0.00972276)
(0.0838109 0.00581045 0.0110216)
(0.0854485 0.00220103 0.0120738)
(0.0965764 -0.000913584 0.0106085)
(0.110551 -0.00114409 0.00278055)
(0.115998 0.0011566 -0.00897879)
(0.115568 0.00422946 -0.0191531)
(0.117531 0.00782404 -0.0252732)
(0.112603 0.0127197 -0.0241422)
(0.0982225 0.0164131 -0.0195122)
(0.0936754 0.014083 -0.0189586)
(0.102261 0.00840717 -0.0114891)
(0.107363 0.00558936 -0.0108725)
(0.110167 0.00182151 -0.00968374)
(0.112924 -0.00224255 -0.00788763)
(0.113659 -0.00185234 -0.00738926)
(0.110816 0.00182 -0.00876733)
(0.0988272 0.0042126 -0.00964663)
(0.0871354 0.00419793 -0.00630207)
(0.0874667 0.00264523 -0.00140962)
(0.0943428 0.0030848 -0.0019448)
(0.0989727 0.00542019 -0.00543623)
(0.0996234 0.0032117 -0.00671096)
(0.0985001 -0.00580825 -0.00758934)
(0.106005 -0.00960972 -0.00883348)
(0.121522 -0.00306895 -0.00405667)
(0.121005 0.000565718 0.00258659)
(0.107927 -0.00363362 0.000285227)
(0.104827 -0.00758898 -0.00899795)
(0.118962 -0.00828614 -0.0163211)
(0.12688 -0.0107401 -0.0120895)
(0.116994 -0.0137012 -0.00182781)
(0.117595 -0.0116166 0.000252045)
(0.136883 -0.00653368 -0.00128727)
(0.144682 -0.00355554 0.000521727)
(0.125714 -0.000764544 0.00144145)
(0.101726 0.00386041 0.0011365)
(0.0930967 0.00661549 0.00537094)
(0.102939 0.00223179 0.0107866)
(0.112038 -0.00485201 0.00771079)
(0.108285 -0.00472193 -0.00166129)
(0.100461 0.00175235 -0.00782343)
(0.0934112 0.00656557 -0.00618199)
(0.0925079 0.00620373 0.00100701)
(0.0949662 0.00158851 0.00820409)
(0.0923978 -0.00555325 0.0112866)
(0.0884497 -0.00981606 0.0134827)
(0.0929534 -0.00735131 0.0154259)
(0.0970041 -0.000760306 0.0138097)
(0.0927765 0.00520417 0.0121882)
(0.0876766 0.00810495 0.012334)
(0.085469 0.00665868 0.0102259)
(0.0853025 0.000280826 0.00688421)
(0.094633 -0.00611528 0.00662501)
(0.11235 -0.00558985 0.00201346)
(0.119013 0.000103025 -0.0122237)
(0.112886 0.00614656 -0.0253413)
(0.106914 0.0100983 -0.029193)
(0.0986295 0.0139389 -0.0268083)
(0.0887491 0.0160743 -0.0214722)
(0.0917385 0.012997 -0.0150706)
(0.105054 0.00617423 0.00209839)
(0.114964 0.00431064 0.00374973)
(0.119947 0.000458082 0.00306834)
(0.121846 -0.00401568 0.00397082)
(0.126349 -0.00299809 0.00174518)
(0.127983 0.00264394 -0.00641489)
(0.117051 0.00610568 -0.0139705)
(0.103432 0.0039179 -0.0136226)
(0.0985552 0.000169019 -0.00567062)
(0.10024 0.0013135 -0.000921507)
(0.102273 0.00565776 -0.00354757)
(0.103796 0.005132 -0.00627747)
(0.105176 -0.00336948 -0.00551314)
(0.108387 -0.00958817 -0.00551321)
(0.117744 -0.00500999 -0.00293778)
(0.120368 0.000314733 0.00295875)
(0.113056 -0.00187108 0.00151995)
(0.10708 -0.00615683 -0.00710537)
(0.114521 -0.0079891 -0.0123453)
(0.126482 -0.00993043 -0.00776296)
(0.123465 -0.012801 9.42944e-05)
(0.119715 -0.0134362 0.000993443)
(0.135734 -0.0104448 -0.00281458)
(0.147025 -0.00535452 -0.00227975)
(0.129381 0.0012811 0.000837935)
(0.103414 0.00711005 0.00239528)
(0.0968912 0.00697287 0.00534345)
(0.112275 -0.000374305 0.00966332)
(0.125846 -0.00721988 0.00773121)
(0.117823 -0.00579756 0.000179976)
(0.10295 0.0023853 -0.00662392)
(0.0961937 0.0080109 -0.00925595)
(0.0995188 0.00647224 -0.00531546)
(0.106865 0.00131087 0.00255861)
(0.106823 -0.00498874 0.0085118)
(0.0978163 -0.00962512 0.0118923)
(0.09391 -0.00767545 0.01499)
(0.0966261 -0.000353836 0.0163747)
(0.0960588 0.00578083 0.0153933)
(0.0950402 0.00788246 0.0118191)
(0.0971368 0.00650554 0.00652158)
(0.0969492 0.000621904 0.00514519)
(0.0944925 -0.00714077 0.00705564)
(0.100013 -0.00761127 0.00276176)
(0.103258 0.00142417 -0.0112529)
(0.097652 0.00956163 -0.0210406)
(0.0955512 0.0128734 -0.018957)
(0.0935116 0.014443 -0.0149451)
(0.0905512 0.0138707 -0.0112739)
(0.0948523 0.00971856 -0.00448828)
(0.108594 0.00325658 0.000331037)
(0.11894 0.00128974 0.00367888)
(0.124229 -0.00126825 0.00345708)
(0.123379 -0.00433819 0.0071549)
(0.125942 -0.00303175 0.0109318)
(0.132798 0.00313414 0.0035852)
(0.13188 0.00746129 -0.0113299)
(0.1244 0.00429019 -0.0192538)
(0.116477 -0.00117311 -0.0123201)
(0.110435 0.000135425 -0.00366951)
(0.107046 0.00594668 -0.0047874)
(0.107366 0.00675014 -0.00761452)
(0.108626 -0.000643207 -0.00461361)
(0.108487 -0.00771245 -0.00251971)
(0.112782 -0.00556198 -0.00226686)
(0.118001 8.93755e-05 0.00209028)
(0.117202 0.000195094 0.00369518)
(0.1128 -0.00349004 -0.00217151)
(0.116392 -0.00634914 -0.00754611)
(0.129818 -0.00812326 -0.00427322)
(0.132773 -0.0111413 0.00249968)
(0.126134 -0.0145354 0.00242332)
(0.134304 -0.0133759 -0.00340412)
(0.143336 -0.00607428 -0.00385545)
(0.127574 0.0036094 0.000703188)
(0.106976 0.0096899 0.00144875)
(0.104763 0.00718977 0.00157009)
(0.116868 -0.00217857 0.00737922)
(0.129202 -0.00895576 0.00830081)
(0.124077 -0.00550661 3.05915e-05)
(0.108157 0.00380522 -0.0066441)
(0.0991588 0.00902686 -0.00740427)
(0.100573 0.00631948 -0.00463643)
(0.110904 0.000560556 -0.00178589)
(0.118972 -0.00402448 0.00247943)
(0.112639 -0.00747481 0.00850862)
(0.100444 -0.0064662 0.0134296)
(0.0962496 -0.000942544 0.0159278)
(0.0999834 0.00449564 0.0140832)
(0.108375 0.00699453 0.00748854)
(0.11609 0.00645676 0.00133062)
(0.114512 0.0017164 0.00171544)
(0.102716 -0.00536099 0.00565255)
(0.0917812 -0.00701533 0.00513068)
(0.0868649 0.00156826 -0.00062563)
(0.0851589 0.00910525 -0.00294434)
(0.08923 0.0114635 -0.00143295)
(0.0927387 0.0126084 -0.00321848)
(0.0947283 0.0117349 -0.00661829)
(0.0997467 0.00732844 -0.00542196)
(0.109755 0.000796366 -0.00392066)
(0.116782 -0.00126701 -0.00198759)
(0.121528 -0.00327001 -0.0030056)
(0.121647 -0.00514575 0.0019784)
(0.121802 -0.00323213 0.0118191)
(0.128137 0.00308422 0.0103254)
(0.135676 0.00747484 -0.00528492)
(0.138807 0.00440327 -0.0179911)
(0.133608 -0.00103098 -0.014926)
(0.122319 0.0002788 -0.00719742)
(0.112911 0.00655894 -0.00797325)
(0.110207 0.00842133 -0.00884974)
(0.110662 0.0027847 -0.00271495)
(0.109335 -0.0040551 0.00122615)
(0.110324 -0.00434276 0.000208054)
(0.115798 -0.000190671 0.00168975)
(0.119521 0.00136465 0.00351803)
(0.118481 -0.000748795 -7.59809e-05)
(0.119833 -0.00526061 -0.00522926)
(0.130909 -0.00888991 -0.00472103)
(0.138767 -0.0105296 0.000197649)
(0.132311 -0.0140343 0.00104083)
(0.13052 -0.0149089 -0.00303086)
(0.135968 -0.00661393 -0.00310783)
(0.125759 0.00507172 0.000589813)
(0.111592 0.0104839 -0.00100265)
(0.109886 0.00657834 -0.00375184)
(0.117782 -0.00358712 0.00253041)
(0.128381 -0.0104023 0.00799457)
(0.12797 -0.0059421 0.000784873)
(0.115165 0.00496983 -0.00469719)
(0.10307 0.0113106 -0.00234087)
(0.100297 0.00837854 -0.0010954)
(0.111946 0.00121655 -0.00442418)
(0.128912 -0.00332083 -0.00607473)
(0.130584 -0.00479828 -0.000679945)
(0.114682 -0.00278969 0.00695381)
(0.0983405 0.000886815 0.0122695)
(0.0936909 0.00244409 0.0138045)
(0.103932 0.00249903 0.00987553)
(0.120391 0.00346218 0.00466052)
(0.124427 0.002151 0.00483047)
(0.109998 -0.00273354 0.00699054)
(0.0919974 -0.00411539 0.00574344)
(0.0845123 0.00212711 0.00235681)
(0.087317 0.00762112 0.00121127)
(0.0939438 0.00861881 0.00164268)
(0.0977879 0.00917123 -0.00128625)
(0.100327 0.00838521 -0.00637335)
(0.104147 0.00466746 -0.00748444)
(0.117379 -0.00153036 -0.00174157)
(0.119372 -0.00308938 -0.00200437)
(0.121305 -0.00453557 -0.00518475)
(0.121005 -0.00557293 -0.000744901)
(0.119036 -0.00282062 0.0108978)
(0.12203 0.00329583 0.0129926)
(0.132091 0.00659552 0.000245292)
(0.141979 0.00357007 -0.011638)
(0.14167 -0.000327346 -0.012278)
(0.130403 0.00169863 -0.0097466)
(0.117898 0.00791427 -0.0113964)
(0.112412 0.0102757 -0.00866422)
(0.111952 0.00618426 -0.000563174)
(0.110494 -2.95863e-06 0.00302058)
(0.109538 -0.00171886 0.00165128)
(0.113873 0.000516395 0.00146494)
(0.119581 0.00231848 0.002141)
(0.121634 0.00192485 0.000656017)
(0.123692 -0.003159 -0.00159306)
(0.130935 -0.010272 -0.00176371)
(0.138519 -0.0122615 0.00160896)
(0.13525 -0.0131663 0.00256022)
(0.126406 -0.0145773 -0.0013566)
(0.124349 -0.00716949 -0.00250187)
(0.121119 0.00525561 -0.000572979)
(0.115573 0.0104702 -0.00399172)
(0.114209 0.0061718 -0.0101188)
(0.119269 -0.00414115 -0.00658454)
(0.128523 -0.0108199 0.00511952)
(0.130823 -0.00593862 0.0051602)
(0.11958 0.00577375 -0.00289966)
(0.105884 0.0130683 -0.00614464)
(0.101808 0.00918166 -0.00425244)
(0.112262 -0.000639326 -0.00264643)
(0.133284 -0.00535709 -0.00636054)
(0.142282 -0.00305029 -0.00662738)
(0.12604 0.00104298 0.000906526)
(0.102891 0.00341472 0.0113473)
(0.0920678 0.000599975 0.0188067)
(0.0971062 -0.00436388 0.0192041)
(0.113871 -0.00333911 0.01605)
(0.12546 0.000716595 0.0142771)
(0.117425 0.000309708 0.011448)
(0.0990525 -0.00123141 0.00533924)
(0.0899616 0.0013134 -0.00189391)
(0.0962012 0.00390299 -0.00665755)
(0.107895 0.00396085 -0.00805475)
(0.113924 0.00520472 -0.00893922)
(0.115198 0.00505451 -0.00954388)
(0.116179 0.00178927 -0.00653417)
(0.134328 -0.00302202 -0.00389183)
(0.129724 -0.00367116 -0.00251447)
(0.126524 -0.00427808 -0.00593374)
(0.123043 -0.00540454 -0.00230305)
(0.119194 -0.0029003 0.00938253)
(0.119819 0.00306776 0.0151678)
(0.129562 0.00556261 0.00862857)
(0.141284 0.002248 -0.00104512)
(0.143109 -0.000473515 -0.00650323)
(0.133327 0.00315647 -0.00963945)
(0.121416 0.0101709 -0.0122755)
(0.11555 0.0128471 -0.00843532)
(0.113943 0.00926607 -0.000237611)
(0.112455 0.0036529 0.00334294)
(0.112037 0.00109469 0.0014957)
(0.115493 0.00154912 0.000580345)
(0.120423 0.00252473 0.0026491)
(0.123756 0.00251423 0.00595401)
(0.128214 -0.00189693 0.00760085)
(0.13372 -0.00988363 0.00527355)
(0.136438 -0.0132073 0.00463934)
(0.13413 -0.0118541 0.00580854)
(0.126185 -0.0121643 0.00228464)
(0.117798 -0.00881218 -0.00245774)
(0.114403 0.00137131 -0.00433169)
(0.114823 0.00837348 -0.00686744)
(0.117759 0.00563645 -0.0101008)
(0.123387 -0.00486478 -0.00816878)
(0.130147 -0.0116814 0.00302548)
(0.132665 -0.00525797 0.00984872)
(0.125517 0.00814481 0.000711104)
(0.115959 0.0154749 -0.00907571)
(0.114314 0.0097005 -0.0038249)
(0.119268 -0.00271365 0.00685014)
(0.132958 -0.00841387 0.00611358)
(0.143926 -0.00247887 -0.000158306)
(0.134639 0.00545018 0.000288749)
(0.118596 0.00748057 0.0078785)
(0.111427 0.00237414 0.0153013)
(0.110795 -0.00541303 0.0172516)
(0.116186 -0.00871749 0.015289)
(0.124852 -0.0047733 0.0140108)
(0.125183 -0.000174345 0.0112368)
(0.115959 0.00143381 0.00526081)
(0.110004 0.00162216 -0.000583636)
(0.114486 0.000122707 -0.00394705)
(0.124091 -0.00331989 -0.00635428)
(0.132738 -0.00282164 -0.0104998)
(0.137858 3.54613e-05 -0.0141618)
(0.138218 -0.000662674 -0.0111642)
(0.146779 -0.00282264 -0.00857745)
(0.138398 -0.00349059 -0.00562367)
(0.131823 -0.00302514 -0.0072482)
(0.126254 -0.00270427 -0.00323436)
(0.120883 -0.000426737 0.00838882)
(0.120084 0.00351147 0.0166376)
(0.127485 0.00338214 0.0150461)
(0.138398 -0.00047427 0.00742218)
(0.142005 -0.00161779 -0.00102345)
(0.134893 0.00371603 -0.00773861)
(0.125398 0.0110203 -0.0114705)
(0.119528 0.0135684 -0.00957666)
(0.115425 0.0104485 -0.00372638)
(0.112169 0.00575114 0.000762103)
(0.112844 0.00322604 0.000916368)
(0.117501 0.00245307 6.26159e-05)
(0.12188 0.00188356 0.00263334)
(0.124597 0.000962524 0.00843574)
(0.128615 -0.00269055 0.0124204)
(0.133567 -0.00964436 0.00926604)
(0.133179 -0.0136964 0.00458747)
(0.127149 -0.0119149 0.00621773)
(0.121476 -0.0088327 0.00795858)
(0.117338 -0.00525371 0.00329955)
(0.115593 0.000296392 -0.00379542)
(0.117707 0.00336704 -0.00823647)
(0.12259 0.000493041 -0.00787943)
(0.127404 -0.00726536 -0.00264393)
(0.131204 -0.0119876 0.00454858)
(0.131969 -0.00536635 0.007762)
(0.127702 0.00776838 0.00123834)
(0.127039 0.0139478 -0.00252366)
(0.133264 0.00808915 0.00611049)
(0.135415 -0.00239677 0.0163315)
(0.137118 -0.00797449 0.0149798)
(0.142057 -0.00337335 0.0065082)
(0.142465 0.00452467 0.00406413)
(0.141628 0.00640299 0.00807326)
(0.140942 0.00275264 0.0125446)
(0.135818 -0.00154606 0.0139302)
(0.129627 -0.00490494 0.0118058)
(0.128165 -0.00534754 0.0107318)
(0.129712 -0.00344059 0.0110346)
(0.129831 -0.000899918 0.00771025)
(0.130219 0.00121161 0.00342681)
(0.132622 0.00121909 0.00285011)
(0.1349 -0.00210156 0.00198496)
(0.138224 -0.00524699 -0.00473078)
(0.145319 -0.00399247 -0.013598)