/*--------------------------------*- C++ -*----------------------------------*\
| =========                 |                                                 |
| \\      /  F ield         | OpenFOAM: The Open Source CFD Toolbox           |
|  \\    /   O peration     | Version:  2.3.0                                 |
|   \\  /    A nd           | Web:      www.OpenFOAM.org                      |
|    \\/     M anipulation  |                                                 |
\*---------------------------------------------------------------------------*/
FoamFile
{
    version     2.0;
    format      ascii;
    class       volVectorField;
    location    "500";
    object      U_0;
}
// * * * * * * * * * * * * * * * * * * * * * * * * * * * * * * * * * * * * * //

dimensions      [0 1 -1 0 0 0 0];

internalField   nonuniform List<vector> 
90000
(
(0.0079286 -4.34502e-05 -0.00097241)
(0.00767539 7.1049e-05 -0.00109368)
(0.00677521 0.000120172 -0.00162084)
(0.00635126 7.36782e-05 -0.00240278)
(0.00718617 1.15475e-05 -0.00189762)
(0.00868515 -4.45167e-07 -1.87956e-05)
(0.00949509 4.69372e-05 0.00135192)
(0.0097553 6.58859e-05 0.00198034)
(0.0100099 8.33581e-05 0.00270588)
(0.0101654 0.000120588 0.00289211)
(0.0108303 0.000155903 0.00107095)
(0.011735 0.000200351 -0.00276668)
(0.0130789 0.000178643 -0.00567752)
(0.0160417 -3.61471e-05 -0.00492407)
(0.0188154 -0.000103567 -0.00172714)
(0.0187683 -6.19742e-05 0.00213101)
(0.0157353 -2.83283e-05 0.00533644)
(0.0119093 -8.36398e-05 0.00681224)
(0.00951668 -0.000166448 0.00594424)
(0.00906669 -0.00019936 0.00367636)
(0.00917387 -0.000157963 0.00146208)
(0.00866846 -4.85657e-05 3.20243e-05)
(0.00782687 5.11781e-06 -0.000602738)
(0.00726592 2.9204e-05 -0.000680412)
(0.00701654 9.90552e-05 -0.000763673)
(0.00693624 0.000150971 -0.000960637)
(0.00708439 0.000125389 -0.000897862)
(0.00763116 4.63278e-05 -0.000661534)
(0.00857224 -4.1991e-05 -0.000178251)
(0.00919187 -4.53572e-05 0.000821254)
(0.00893659 1.15782e-06 0.00169584)
(0.00836509 1.22793e-05 0.00196861)
(0.00819126 -9.24538e-06 0.00169267)
(0.00818422 -1.14036e-05 0.000913746)
(0.00803368 -1.57092e-05 -6.02928e-05)
(0.00801418 -7.50488e-05 -0.000543824)
(0.00824752 -9.31057e-05 -0.000157551)
(0.00813783 -3.1139e-05 0.000511943)
(0.00756115 2.55751e-05 0.000487408)
(0.00717948 4.14317e-05 -3.02816e-05)
(0.00733757 3.18414e-05 -0.000394359)
(0.00742598 8.19884e-05 -0.000906987)
(0.0068337 0.000200635 -0.00176552)
(0.00570536 0.000254377 -0.00242668)
(0.00490721 0.000184667 -0.00279807)
(0.00521745 5.1857e-05 -0.00308293)
(0.00613411 -7.94783e-05 -0.00299496)
(0.00669492 -0.000116437 -0.00234724)
(0.00692194 -0.000124818 -0.00149562)
(0.00740335 -0.000107029 -0.000999073)
(0.0211546 1.6084e-05 -0.00128371)
(0.0206346 0.00060015 -0.00244882)
(0.0197828 0.00077008 -0.00474742)
(0.019882 0.000482615 -0.00694687)
(0.0220661 0.000124606 -0.00571135)
(0.0260626 4.59826e-05 -0.000935578)
(0.0287832 0.00026259 0.00310895)
(0.0296189 0.000438319 0.00518633)
(0.0301539 0.000598603 0.00726971)
(0.029656 0.000845647 0.00835863)
(0.0293162 0.00103204 0.00420777)
(0.0314328 0.00105766 -0.00463086)
(0.0367529 0.000320629 -0.00987751)
(0.0464177 -0.00115361 -0.00836618)
(0.0559069 -0.00150426 -0.00462624)
(0.0607025 -0.000776412 0.0010792)
(0.0574714 -0.000318402 0.00819071)
(0.0472218 -0.000472136 0.0128408)
(0.035998 -0.000783104 0.0122033)
(0.0293361 -0.000886822 0.00762075)
(0.0267101 -0.000573802 0.00242873)
(0.0249028 -1.9074e-05 -0.00111694)
(0.0229371 0.000271473 -0.00266671)
(0.0213652 0.00041397 -0.00279131)
(0.0208201 0.00063859 -0.00260568)
(0.0213366 0.00070092 -0.00238595)
(0.0224066 0.000428915 -0.00151574)
(0.0235708 2.79576e-05 -0.000288362)
(0.0248539 -0.000233631 0.00128356)
(0.0259426 -0.000105082 0.00357122)
(0.0264639 0.000119017 0.00540468)
(0.0265135 0.000113208 0.00581144)
(0.0259388 -8.18357e-05 0.00503135)
(0.0246995 -0.000155667 0.00322784)
(0.0238202 -0.000175499 0.000884282)
(0.0236725 -0.000334628 -0.000689501)
(0.0236098 -0.000283201 -0.000636149)
(0.0228336 7.05979e-05 6.36917e-05)
(0.0219547 0.000363321 -0.000341512)
(0.0220359 0.000463838 -0.001741)
(0.022884 0.000533412 -0.00317115)
(0.0231697 0.000864001 -0.00475065)
(0.0221776 0.0013389 -0.00634644)
(0.0205334 0.00142476 -0.00713759)
(0.0197594 0.000951078 -0.00721842)
(0.0204159 0.000229258 -0.00696566)
(0.0210316 -0.000348487 -0.00591697)
(0.0207727 -0.000501204 -0.00402985)
(0.0204817 -0.000541131 -0.00208602)
(0.0208291 -0.000404425 -0.00105652)
(0.0327264 0.000155684 -0.000481192)
(0.0321953 0.00139496 -0.00221208)
(0.0322522 0.00175008 -0.00605534)
(0.0332916 0.00117676 -0.0106611)
(0.035374 0.000345728 -0.011284)
(0.0399479 -2.73451e-05 -0.00564009)
(0.0447894 0.000403895 0.00127154)
(0.0462922 0.000879094 0.00528505)
(0.048357 0.00118172 0.0090678)
(0.0497009 0.00180912 0.0132073)
(0.0464447 0.00230372 0.0107362)
(0.0470122 0.00222768 0.000381695)
(0.0552921 0.000579352 -0.0049177)
(0.0683968 -0.0026063 -0.00236737)
(0.0796578 -0.00430896 -0.00196034)
(0.0890178 -0.00348848 -0.0027586)
(0.0983608 -0.0016263 0.00136658)
(0.096357 -0.00062422 0.00905338)
(0.0781718 -0.000882442 0.0132082)
(0.0573718 -0.0014055 0.0108582)
(0.0457339 -0.00106285 0.00466396)
(0.0418602 5.35806e-05 -0.00118837)
(0.0395875 0.000789122 -0.00454936)
(0.0369177 0.00116982 -0.00554948)
(0.0354308 0.00152508 -0.00568562)
(0.0361135 0.00147836 -0.00546451)
(0.0378077 0.000820684 -0.003741)
(0.0388926 -2.2246e-05 -0.000889445)
(0.0393821 -0.000491043 0.00218595)
(0.0404287 -0.000206276 0.00579564)
(0.0423742 0.000292708 0.00885567)
(0.0446836 0.000465771 0.00971002)
(0.0454877 0.000171664 0.00857602)
(0.0431353 -0.000194146 0.00648486)
(0.0402834 -0.000451183 0.00348374)
(0.0387779 -0.0007702 0.0005102)
(0.0379525 -0.00056659 -0.00080493)
(0.0367863 0.000236718 -0.000696021)
(0.0359061 0.000886712 -0.00123285)
(0.036618 0.0010703 -0.00295706)
(0.038753 0.0011715 -0.00505784)
(0.0406081 0.00185762 -0.00751527)
(0.0410555 0.00295905 -0.0100807)
(0.0403586 0.00338084 -0.0117154)
(0.0401218 0.00258277 -0.0121098)
(0.04036 0.00107261 -0.0113159)
(0.0387382 -0.000260142 -0.00888838)
(0.0359306 -0.00070577 -0.00533361)
(0.0340356 -0.000927975 -0.00208762)
(0.0332565 -0.000725729 -0.000359529)
(0.0430124 0.000246687 0.000775132)
(0.0417441 0.00213831 -0.000609921)
(0.0421336 0.00280617 -0.00485123)
(0.0444543 0.00199396 -0.0115286)
(0.0472882 0.000765211 -0.0156397)
(0.0506591 -7.00512e-05 -0.0123559)
(0.0555214 0.000530131 -0.00412627)
(0.0572611 0.00137538 0.00175501)
(0.0598456 0.00138554 0.00655794)
(0.0664608 0.00220111 0.0145077)
(0.0648535 0.00359979 0.0163928)
(0.0610619 0.0034981 0.0100344)
(0.0688601 0.000839107 0.00781371)
(0.0823678 -0.0032641 0.0104496)
(0.0942588 -0.00543696 0.00746714)
(0.0984591 -0.00598223 -0.000351286)
(0.103558 -0.00541651 -0.00381816)
(0.119359 -0.00293084 -0.000571795)
(0.122361 -0.000866285 0.0055042)
(0.0980059 -0.000944251 0.00916245)
(0.070183 -0.00126452 0.00699246)
(0.0581839 -0.000208892 0.00110762)
(0.0560066 0.0010631 -0.00432841)
(0.0546078 0.002063 -0.00755459)
(0.0528851 0.00280395 -0.00954103)
(0.0527582 0.00265657 -0.0109593)
(0.0537414 0.00148049 -0.00964491)
(0.053773 2.91738e-05 -0.00487067)
(0.0523623 -0.00075061 0.000929549)
(0.0519139 -0.000414837 0.00651839)
(0.0538433 0.000284357 0.0110121)
(0.0576109 0.000774699 0.012856)
(0.0618858 0.000697615 0.0116188)
(0.0629328 0.000146519 0.00928173)
(0.0598844 -0.000572835 0.00675423)
(0.0552268 -0.001348 0.00351509)
(0.051238 -0.00119966 0.000779029)
(0.0487576 0.0001028 -0.000418762)
(0.0477251 0.00133571 -0.00126379)
(0.0483305 0.00173643 -0.00265863)
(0.0509722 0.00174727 -0.00478555)
(0.0543708 0.00251508 -0.00787392)
(0.0568086 0.00414421 -0.0113556)
(0.058839 0.00514096 -0.0142816)
(0.0627201 0.00464548 -0.0166907)
(0.0659964 0.00307752 -0.0174477)
(0.0620609 0.00117697 -0.0143406)
(0.0540195 -1.8983e-05 -0.00841623)
(0.0484424 -0.000801086 -0.00284021)
(0.0453034 -0.000912835 0.000252548)
(0.0527514 0.000581017 0.00176863)
(0.0499074 0.00277886 0.00135146)
(0.0492756 0.00383477 -0.00230972)
(0.0510926 0.0027023 -0.00939426)
(0.0549694 0.00107143 -0.0157099)
(0.059319 0.000106424 -0.0164866)
(0.0633539 0.000936385 -0.00991499)
(0.0644528 0.00238422 -0.00321733)
(0.0655832 0.00176882 0.000415485)
(0.0750003 0.00140436 0.00880659)
(0.0796928 0.00388047 0.0163986)
(0.0790089 0.0046046 0.0171575)
(0.0872631 0.000656205 0.0172981)
(0.0934614 -0.00473612 0.0183989)
(0.100512 -0.00615481 0.014336)
(0.110243 -0.00527591 0.00208215)
(0.10626 -0.00699289 -0.00553856)
(0.105991 -0.00787217 -0.00477044)
(0.128139 -0.00392861 -0.00329305)
(0.13089 -0.000907697 0.000450037)
(0.10156 -0.000603097 0.00449722)
(0.0757065 -0.000307506 0.0034253)
(0.067971 0.000678096 -0.00122245)
(0.0686951 0.00221296 -0.00617224)
(0.0714009 0.00403474 -0.0111683)
(0.0740455 0.0044787 -0.0163314)
(0.074245 0.00284241 -0.0180682)
(0.0709403 0.000445565 -0.0129319)
(0.0655864 -0.000906318 -0.00376754)
(0.0620324 -0.000641476 0.00490977)
(0.0620922 7.63164e-05 0.0110492)
(0.0648066 0.000773494 0.0139327)
(0.0698199 0.000900279 0.013063)
(0.0764149 0.000235327 0.00992507)
(0.0800318 -0.000671482 0.00766003)
(0.0760034 -0.0016619 0.00587789)
(0.0668326 -0.00183207 0.0035273)
(0.0596401 -0.000422062 0.00142018)
(0.0566566 0.00143768 -0.000168257)
(0.0566866 0.00235915 -0.00118554)
(0.0589755 0.00231411 -0.00275916)
(0.0633467 0.00274219 -0.00627995)
(0.0677747 0.00450239 -0.0106634)
(0.0713567 0.00586893 -0.0144053)
(0.0775759 0.00553602 -0.0181349)
(0.0870834 0.00459054 -0.0217201)
(0.0883604 0.00363212 -0.0210706)
(0.0770468 0.00236223 -0.0144047)
(0.0651451 0.000872728 -0.00576326)
(0.057759 -0.000181364 -8.65914e-05)
(0.0622275 0.00168541 0.00191086)
(0.0574716 0.00346058 0.00310897)
(0.05519 0.00483908 0.000257003)
(0.0552699 0.00342077 -0.00599009)
(0.0583758 0.00112941 -0.0119721)
(0.0641225 0.000115041 -0.0158012)
(0.068987 0.00150977 -0.0129389)
(0.069828 0.00373324 -0.00623228)
(0.0702753 0.00286289 -0.00485935)
(0.0760574 0.000925156 -0.00313405)
(0.0825408 0.00286164 0.00716395)
(0.0909136 0.00408008 0.0157255)
(0.107579 0.0006188 0.0137743)
(0.110157 -0.00485293 0.0115266)
(0.0999916 -0.00784125 0.0136222)
(0.112168 -0.00560699 0.00359697)
(0.124973 -0.00477079 -0.00765632)
(0.108992 -0.00916763 -0.0053847)
(0.109066 -0.00963812 -0.00365084)
(0.133715 -0.00418585 -0.00662775)
(0.126331 -0.000501034 -0.00279769)
(0.0967548 0.000271201 0.00196256)
(0.0786715 0.000329583 0.0017419)
(0.0754053 0.00135194 -0.00174844)
(0.0807162 0.00381382 -0.00751593)
(0.0916779 0.00575751 -0.016227)
(0.0987237 0.00495835 -0.0235588)
(0.0937208 0.00189215 -0.0217601)
(0.0817077 -0.000585968 -0.0111864)
(0.072657 -0.000745749 0.000575023)
(0.0690975 -0.000129987 0.0086677)
(0.0689433 0.00068472 0.0127871)
(0.0716323 0.000887375 0.0130665)
(0.079188 -0.000361746 0.00919916)
(0.0905224 -0.0017026 0.00514389)
(0.0944138 -0.00218553 0.00455439)
(0.0847664 -0.00191629 0.00491133)
(0.0718159 -0.000634996 0.00371111)
(0.0645089 0.00137335 0.00176882)
(0.063291 0.00263245 0.000828251)
(0.0660417 0.00262162 0.000157875)
(0.0710639 0.00248233 -0.0032074)
(0.0770759 0.00386508 -0.00859203)
(0.0821547 0.00546749 -0.0133339)
(0.0888771 0.00511348 -0.0177264)
(0.0997143 0.00435904 -0.0227672)
(0.107088 0.00483038 -0.0252102)
(0.099347 0.00514939 -0.0207452)
(0.0834924 0.00412276 -0.0109038)
(0.0706126 0.00221884 -0.00233691)
(0.0710579 0.00373102 0.000713824)
(0.0641612 0.00439085 0.0041629)
(0.0600027 0.00571488 0.00253555)
(0.0591971 0.00414927 -0.0019847)
(0.0619615 0.00140521 -0.00634408)
(0.0674921 -0.000143154 -0.0117201)
(0.0721493 0.00172393 -0.0126451)
(0.0737253 0.00476182 -0.00661691)
(0.0749511 0.00422145 -0.0070573)
(0.0760788 0.00190361 -0.0123244)
(0.0781059 0.00213193 -0.00428072)
(0.0872011 0.00151403 0.00631298)
(0.108509 -0.000684705 0.000341823)
(0.123015 -0.00276852 -0.00487657)
(0.109058 -0.00668831 0.00620825)
(0.103452 -0.00769877 0.00590648)
(0.126171 -0.00463159 -0.00962564)
(0.126467 -0.00626107 -0.0108369)
(0.102664 -0.0122048 -0.000165454)
(0.116483 -0.0100709 -0.00388455)
(0.133812 -0.00290138 -0.00800092)
(0.116601 0.000629298 -0.0029099)
(0.0925716 0.000432842 0.00155451)
(0.0812386 0.000398533 0.00208149)
(0.0824267 0.00233045 -0.00112105)
(0.0951094 0.00472587 -0.0097736)
(0.112281 0.00561996 -0.0213663)
(0.114755 0.00374999 -0.0254644)
(0.100066 0.000583347 -0.0176905)
(0.084439 -0.000485669 -0.00525179)
(0.0759107 -5.3284e-05 0.00447515)
(0.07212 0.000821691 0.0102982)
(0.0719275 0.00109999 0.0126811)
(0.076748 -0.000977128 0.00998171)
(0.0892512 -0.00358644 0.00383619)
(0.101336 -0.00377784 0.00154213)
(0.0981941 -0.00205532 0.00393604)
(0.0839191 -6.32695e-05 0.00513748)
(0.073072 0.00172695 0.0037821)
(0.0700166 0.00260195 0.00321937)
(0.0726137 0.00252656 0.00391273)
(0.0781417 0.00203733 0.00185771)
(0.0855271 0.00255145 -0.00438658)
(0.0927656 0.00412541 -0.0111466)
(0.100406 0.00408528 -0.0170674)
(0.109422 0.00369206 -0.0227887)
(0.117733 0.00523639 -0.0267274)
(0.114091 0.00727917 -0.0245381)
(0.0980779 0.00772549 -0.0156391)
(0.0820309 0.00588132 -0.0060041)
(0.0777907 0.00614038 -0.00288012)
(0.0701662 0.00547003 0.00303998)
(0.0647267 0.00625646 0.00442817)
(0.0639613 0.00453225 0.00250835)
(0.0676206 0.00186065 -0.000405646)
(0.0728793 -3.623e-05 -0.00589028)
(0.0749976 0.00153576 -0.00921127)
(0.0758782 0.00513293 -0.00589761)
(0.0786454 0.00537304 -0.00776358)
(0.0798775 0.00304866 -0.0139093)
(0.0782953 0.00195707 -0.00899081)
(0.080341 -0.000506182 -0.00273476)
(0.0962489 -0.00292619 -0.0110761)
(0.12139 -0.00216231 -0.0167295)
(0.121699 -0.00364081 -0.00143542)
(0.103973 -0.0076715 0.0080961)
(0.115069 -0.00669059 -0.00774897)
(0.130962 -0.00468932 -0.0184423)
(0.11453 -0.0104178 -0.00601906)
(0.102659 -0.0148286 0.00359166)
(0.1251 -0.00803084 -0.00448872)
(0.128998 -0.000466265 -0.0064923)
(0.110273 0.000679492 -0.00134018)
(0.0922983 -0.00040529 0.00320376)
(0.0862238 0.000529659 0.00349386)
(0.093378 0.00257204 -0.00340997)
(0.109433 0.00411614 -0.0149679)
(0.119397 0.00387318 -0.0216263)
(0.112236 0.00159173 -0.0193527)
(0.0960361 0.000214198 -0.0106158)
(0.0833571 0.000477271 -0.000623861)
(0.076097 0.00136263 0.00747591)
(0.0732834 0.00174936 0.0127183)
(0.0750172 -0.000857001 0.0131426)
(0.0836242 -0.00515621 0.00788458)
(0.0978763 -0.00620117 0.00268384)
(0.103156 -0.0031394 0.00319106)
(0.0931098 0.00059689 0.00582883)
(0.0813504 0.0029337 0.00614545)
(0.0768206 0.0033675 0.00600837)
(0.0781669 0.0027209 0.00746521)
(0.083027 0.00201564 0.00732887)
(0.0912072 0.00164219 0.00159867)
(0.101112 0.0023113 -0.00746442)
(0.109246 0.002361 -0.0165089)
(0.115682 0.00298418 -0.0232729)
(0.121511 0.00538491 -0.0271781)
(0.118028 0.00877035 -0.0255582)
(0.102122 0.0110633 -0.0176904)
(0.0869406 0.00978712 -0.00960482)
(0.0850324 0.00850352 -0.0125012)
(0.0777845 0.00672959 -0.00546533)
(0.0724076 0.00603074 0.000367996)
(0.0720183 0.00359767 0.00268544)
(0.0765669 0.00155821 0.00240384)
(0.0813783 0.000484752 -0.00125623)
(0.0793455 0.00179612 -0.00529113)
(0.0766575 0.00514717 -0.00507291)
(0.0812883 0.00573205 -0.00653553)
(0.0866167 0.00401421 -0.0108728)
(0.084872 0.00301563 -0.00919672)
(0.0823858 -0.000724786 -0.00474092)
(0.0907292 -0.00582343 -0.00885879)
(0.11561 -0.00437991 -0.0146312)
(0.127575 -0.00173252 -0.00397631)
(0.11119 -0.00512237 0.00805618)
(0.104747 -0.00821886 -0.000885989)
(0.123603 -0.00590623 -0.0179691)
(0.126933 -0.00838656 -0.0156331)
(0.108185 -0.0155042 0.00157362)
(0.113121 -0.0133019 0.00290426)
(0.130133 -0.00371526 -0.00444187)
(0.127451 0.000327736 -0.00330515)
(0.111017 -0.000867168 0.00225248)
(0.0972204 -0.000843099 0.00408228)
(0.0956785 0.00124511 -0.00105751)
(0.101064 0.00309618 -0.00813714)
(0.107123 0.00265084 -0.011144)
(0.109218 0.00103944 -0.0133862)
(0.102452 0.00078165 -0.0126709)
(0.0909713 0.0015999 -0.00581016)
(0.081235 0.0026033 0.00395792)
(0.0759495 0.00292746 0.0120549)
(0.0756151 -9.94839e-05 0.0151782)
(0.0797671 -0.005537 0.0133206)
(0.0905712 -0.00800182 0.00875901)
(0.100674 -0.00470938 0.00613145)
(0.0974279 0.000649221 0.00705748)
(0.0880023 0.00422479 0.00774253)
(0.0830818 0.00511629 0.00834587)
(0.0825 0.00401745 0.0107907)
(0.08638 0.00207683 0.0118749)
(0.0957766 0.000272333 0.00682998)
(0.10623 0.000119018 -0.00361157)
(0.1116 0.00140472 -0.0146105)
(0.115332 0.00393902 -0.021637)
(0.120199 0.00730158 -0.0244341)
(0.115297 0.0110926 -0.0223306)
(0.0991981 0.0141874 -0.0171615)
(0.089018 0.0129096 -0.0149604)
(0.0970166 0.00824713 -0.0197504)
(0.0939835 0.00647092 -0.0163645)
(0.0909572 0.00455003 -0.0106133)
(0.0903089 0.00110347 -0.00577482)
(0.0917712 2.04048e-05 -0.00252429)
(0.0930212 0.00107724 -0.0027232)
(0.0859187 0.00276189 -0.00476237)
(0.0792529 0.00473608 -0.00378384)
(0.083866 0.00476792 -0.00289013)
(0.0913167 0.00440991 -0.00693587)
(0.0929085 0.00474845 -0.0090968)
(0.0917047 0.000344199 -0.00577222)
(0.093944 -0.00785447 -0.00504989)
(0.11163 -0.00763586 -0.00795136)
(0.128194 -0.0013099 -0.00258365)
(0.118836 -0.0014352 0.00570385)
(0.102771 -0.00670442 0.00258077)
(0.11171 -0.0075821 -0.0116266)
(0.128075 -0.007821 -0.0188218)
(0.121332 -0.0132117 -0.0078911)
(0.110746 -0.0151448 0.00246818)
(0.12379 -0.00798905 -0.000944765)
(0.136971 -0.00190289 -0.00224301)
(0.130997 -0.001623 0.00146234)
(0.112218 -0.00123741 0.00237216)
(0.0991899 0.00206412 -0.000196246)
(0.0943346 0.00467712 0.000250878)
(0.0964252 0.00220658 0.0030304)
(0.1016 -0.00179496 -0.00134951)
(0.102647 -0.000867007 -0.00896536)
(0.0963793 0.00235865 -0.00863231)
(0.0870152 0.00437179 -0.000328821)
(0.0816733 0.00429323 0.00898002)
(0.0811419 0.000315875 0.0136163)
(0.0816136 -0.00593398 0.0141396)
(0.0861508 -0.00891147 0.0136598)
(0.0960263 -0.00592769 0.0115657)
(0.0984163 0.000213641 0.00987322)
(0.092249 0.00531093 0.0094133)
(0.0864692 0.00724716 0.00977737)
(0.0837382 0.00552008 0.0110706)
(0.0862421 0.00169807 0.0119126)
(0.0982159 -0.00113076 0.00986713)
(0.111685 -0.000931288 0.00124899)
(0.116091 0.00148907 -0.010619)
(0.115405 0.00487736 -0.0202798)
(0.116726 0.00871121 -0.0255928)
(0.110383 0.0134082 -0.0238659)
(0.0963627 0.0163528 -0.0193662)
(0.093528 0.0133558 -0.0190162)
(0.103269 0.00778939 -0.0107582)
(0.108014 0.00510327 -0.0104716)
(0.110672 0.00136182 -0.00952569)
(0.113145 -0.00229633 -0.00795015)
(0.113512 -0.00142137 -0.00756743)
(0.109957 0.00223921 -0.00896117)
(0.0975293 0.00430569 -0.00957204)
(0.0866981 0.00403864 -0.00585106)
(0.0880328 0.00263405 -0.00108187)
(0.0950738 0.00333077 -0.00208019)
(0.0992816 0.0054918 -0.00558762)
(0.0995152 0.00254296 -0.00681453)
(0.0986948 -0.00665905 -0.00768704)
(0.107698 -0.00932351 -0.00854642)
(0.12256 -0.00236254 -0.00311205)
(0.119934 0.000403613 0.00290724)
(0.106687 -0.00431122 -0.000516553)
(0.105749 -0.00791599 -0.010276)
(0.120904 -0.0085089 -0.0167692)
(0.126697 -0.0113465 -0.0111898)
(0.116022 -0.0140647 -0.00104227)
(0.119349 -0.0111325 0.000155306)
(0.138991 -0.00591586 -0.00122661)
(0.143557 -0.00317352 0.000734903)
(0.122573 -0.000261238 0.00145783)
(0.0996355 0.00441252 0.00137685)
(0.0932181 0.00656006 0.00615339)
(0.104301 0.00145525 0.0109977)
(0.112042 -0.00529532 0.00686436)
(0.107312 -0.00422794 -0.00266535)
(0.0994263 0.00253413 -0.00808296)
(0.0929348 0.00686224 -0.00577154)
(0.0928048 0.00587247 0.00162786)
(0.0949684 0.000761183 0.00866657)
(0.0917415 -0.00621834 0.0115917)
(0.0885307 -0.00974802 0.0137468)
(0.0939001 -0.00663138 0.0153892)
(0.0972012 4.01593e-05 0.0136286)
(0.0923663 0.0057899 0.0121399)
(0.0874693 0.00828971 0.0121753)
(0.085506 0.00617823 0.00979636)
(0.0858316 -0.000647127 0.00659281)
(0.0964925 -0.00645418 0.00618519)
(0.113921 -0.00506482 0.000447705)
(0.118587 0.000893102 -0.0143764)
(0.111445 0.00709782 -0.0264629)
(0.105383 0.0110237 -0.0289448)
(0.0969861 0.0144649 -0.0259895)
(0.0881817 0.0157906 -0.0204935)
(0.0925838 0.0122743 -0.014045)
(0.106456 0.00569039 0.00295751)
(0.116014 0.00388261 0.00410793)
(0.120386 -4.42001e-05 0.00321424)
(0.122363 -0.00411542 0.003771)
(0.12692 -0.0024339 0.000808396)
(0.127349 0.00326559 -0.00755677)
(0.115484 0.00610851 -0.0145618)
(0.102412 0.00344399 -0.0132189)
(0.0984535 0.000119341 -0.00482801)
(0.100565 0.00178751 -0.000759543)
(0.102487 0.00596242 -0.00383384)
(0.103936 0.00458871 -0.00638041)
(0.105327 -0.00432642 -0.00543704)
(0.109283 -0.00962864 -0.00537637)
(0.118645 -0.00428874 -0.0022212)
(0.119934 0.000427004 0.00332178)
(0.112065 -0.00243583 0.000781353)
(0.10715 -0.0066339 -0.00820626)
(0.116106 -0.00827743 -0.012603)
(0.127124 -0.0104494 -0.00710454)
(0.122549 -0.013335 0.000454756)
(0.120635 -0.0133623 0.000644092)
(0.13806 -0.00980037 -0.00295249)
(0.146419 -0.00452908 -0.00195329)
(0.126113 0.00211231 0.00114468)
(0.101351 0.00754148 0.00267085)
(0.097723 0.00645998 0.00586364)
(0.114423 -0.0012821 0.00983275)
(0.126 -0.00752841 0.00706413)
(0.116009 -0.00511754 -0.000710098)
(0.101504 0.00332029 -0.00721223)
(0.0959545 0.00823119 -0.00921281)
(0.100298 0.00595688 -0.00470109)
(0.107404 0.000595919 0.0032875)
(0.106029 -0.00566592 0.00912846)
(0.0968219 -0.00969295 0.0123965)
(0.0941641 -0.00692425 0.0152718)
(0.0970395 0.000584709 0.016364)
(0.0961854 0.00635848 0.0150937)
(0.0955519 0.00800588 0.0111078)
(0.0976954 0.00604456 0.0059419)
(0.0967685 -0.000341702 0.0051285)
(0.0946048 -0.00770051 0.00680325)
(0.100724 -0.00688576 0.00137531)
(0.102472 0.00272973 -0.0128695)
(0.0963062 0.0105801 -0.0209914)
(0.0948274 0.0134792 -0.0176179)
(0.0932348 0.0145786 -0.0136097)
(0.0910187 0.0133926 -0.0101028)
(0.0959793 0.00903175 -0.00333544)
(0.10996 0.00274042 0.000963855)
(0.120014 0.000928886 0.0039708)
(0.124501 -0.00157052 0.00384628)
(0.123595 -0.00435533 0.00779273)
(0.126881 -0.00244143 0.0105155)
(0.133268 0.00384692 0.00189897)
(0.131228 0.00743461 -0.0130306)
(0.123286 0.00356697 -0.0194463)
(0.115423 -0.00136105 -0.0111932)
(0.109887 0.000750957 -0.00315341)
(0.106891 0.00645021 -0.00509642)
(0.107459 0.00636615 -0.00760322)
(0.10864 -0.00154783 -0.00423796)
(0.108792 -0.00803871 -0.0024336)
(0.113525 -0.00500507 -0.00189095)
(0.118265 0.00045075 0.00255991)
(0.116854 -0.000131702 0.00338785)
(0.112729 -0.00401667 -0.00306682)
(0.117694 -0.0067127 -0.00785872)
(0.131011 -0.00856195 -0.00364727)
(0.132049 -0.011844 0.00284049)
(0.126005 -0.0148416 0.00187588)
(0.135953 -0.0126912 -0.00378591)
(0.142869 -0.00485461 -0.0034527)
(0.124822 0.00466142 0.00107913)
(0.105635 0.00991769 0.00142446)
(0.105672 0.00634827 0.00197481)
(0.118752 -0.00324785 0.00793256)
(0.129765 -0.00906018 0.00772164)
(0.122397 -0.00459387 -0.000948952)
(0.106515 0.00478009 -0.0070979)
(0.098701 0.0091562 -0.00716586)
(0.101348 0.00567219 -0.00422325)
(0.112256 -3.50426e-05 -0.00137612)
(0.119006 -0.00457019 0.0032564)
(0.111086 -0.00761695 0.00945776)
(0.0994222 -0.00595434 0.0139973)
(0.0964555 -0.000101882 0.015874)
(0.100958 0.00506847 0.0134084)
(0.109763 0.00716139 0.00650458)
(0.116856 0.00612313 0.000847085)
(0.113711 0.000889753 0.00196608)
(0.101143 -0.00600694 0.00581198)
(0.0908904 -0.0064414 0.00460053)
(0.0861959 0.00291671 -0.00114348)
(0.0849589 0.00985779 -0.00253132)
(0.0895948 0.0117167 -0.000783222)
(0.0931877 0.0125245 -0.00304541)
(0.0954406 0.0112173 -0.0065552)
(0.100835 0.00663397 -0.00496353)
(0.110609 0.000305966 -0.00356578)
(0.117538 -0.00158958 -0.00190388)
(0.12185 -0.00346546 -0.00258785)
(0.121715 -0.00504328 0.00322175)
(0.122414 -0.00257481 0.01234)
(0.129216 0.00383127 0.00891706)
(0.136457 0.0074628 -0.00739936)
(0.138573 0.00366302 -0.0187406)
(0.132158 -0.00129297 -0.0140973)
(0.120825 0.00093082 -0.00668963)
(0.112121 0.00718846 -0.00818223)
(0.110066 0.00821852 -0.00846746)
(0.110617 0.00197297 -0.00199175)
(0.109338 -0.00456508 0.00135607)
(0.110846 -0.00405577 0.000228051)
(0.116473 0.000222651 0.00194592)
(0.119777 0.00127845 0.003388)
(0.118538 -0.00129026 -0.000723202)
(0.120746 -0.00590759 -0.00568256)
(0.132414 -0.00925603 -0.00441626)
(0.13867 -0.011012 0.000524179)
(0.13139 -0.0145356 0.000711531)
(0.131119 -0.0143311 -0.00327601)
(0.135792 -0.0051435 -0.00269338)
(0.123917 0.00621988 0.00074198)
(0.110723 0.0105189 -0.00140122)
(0.110445 0.00555272 -0.00348296)
(0.119219 -0.00475351 0.00357851)
(0.129258 -0.0104308 0.00783391)
(0.126882 -0.00481143 -0.000156556)
(0.113446 0.00614111 -0.00479116)
(0.102127 0.0114918 -0.00208426)
(0.100926 0.00760073 -0.00120795)
(0.114072 0.000393437 -0.00474087)
(0.130255 -0.00376438 -0.00570015)
(0.129297 -0.00487233 0.000510499)
(0.112354 -0.002382 0.00803002)
(0.0970495 0.00130112 0.0126758)
(0.0941337 0.0025571 0.0135667)
(0.105844 0.00256189 0.00921786)
(0.121931 0.00346209 0.00434511)
(0.123795 0.00167481 0.00501099)
(0.10787 -0.00324703 0.00697582)
(0.090386 -0.0036545 0.00537144)
(0.0841942 0.00324309 0.00194359)
(0.088045 0.00815268 0.00101562)
(0.0948837 0.00867109 0.0013438)
(0.0983884 0.00900584 -0.00187094)
(0.100861 0.00791905 -0.00675883)
(0.10484 0.00403387 -0.00730912)
(0.117482 -0.00193407 -0.00141473)
(0.119494 -0.00330533 -0.0022246)
(0.121311 -0.00464671 -0.00494755)
(0.120837 -0.00535076 0.000576251)
(0.11911 -0.0021186 0.0118564)
(0.123023 0.00398001 0.0120277)
(0.133657 0.00653211 -0.00153749)
(0.142713 0.00298631 -0.0125546)
(0.14059 -0.000430254 -0.0121677)
(0.128529 0.00239866 -0.00971713)
(0.116633 0.00859334 -0.0113876)
(0.11205 0.0101927 -0.00785053)
(0.111879 0.00545308 0.00028177)
(0.110373 -0.00057852 0.0031463)
(0.109825 -0.00165421 0.00153292)
(0.114644 0.000823835 0.00151422)
(0.12021 0.00238193 0.00211527)
(0.121989 0.00147264 0.000440533)
(0.124349 -0.00410798 -0.00193094)
(0.132079 -0.0109065 -0.00177235)
(0.138837 -0.012484 0.00176816)
(0.134152 -0.0135011 0.00220349)
(0.125674 -0.0141814 -0.00169955)
(0.124182 -0.00569802 -0.00229789)
(0.120434 0.00641607 -0.000725307)
(0.115174 0.0104628 -0.00474284)
(0.114557 0.00508989 -0.0102547)
(0.120368 -0.00539838 -0.00526042)
(0.129466 -0.0108325 0.00600858)
(0.130132 -0.00469087 0.00446019)
(0.117796 0.00706345 -0.00357135)
(0.104885 0.0132109 -0.00642228)
(0.10244 0.00809778 -0.00412679)
(0.114621 -0.00176592 -0.00292992)
(0.135614 -0.00547657 -0.00676157)
(0.141562 -0.0027372 -0.00593602)
(0.123098 0.00141654 0.00241845)
(0.100805 0.00339308 0.0126091)
(0.0919344 7.93244e-05 0.0192056)
(0.098772 -0.00461581 0.0188721)
(0.116054 -0.002942 0.015742)
(0.125851 0.000899532 0.014008)
(0.115754 4.81012e-05 0.010822)
(0.0972815 -0.00108208 0.00441751)
(0.0898196 0.0019666 -0.00280866)
(0.0976072 0.00419836 -0.00735882)
(0.109443 0.0040287 -0.00859341)
(0.114629 0.00514819 -0.0093291)
(0.115404 0.00466025 -0.00945603)
(0.116294 0.00123688 -0.00595851)
(0.133453 -0.00330624 -0.00320523)
(0.12894 -0.00375577 -0.00263915)
(0.125875 -0.00434662 -0.00576977)
(0.12246 -0.0052414 -0.00101595)
(0.118878 -0.00224235 0.0106566)
(0.12056 0.0036652 0.0149492)
(0.131297 0.00543801 0.00740439)
(0.142383 0.00176713 -0.00227636)
(0.14236 -0.00034999 -0.00727574)
(0.131578 0.00404667 -0.0101176)
(0.120192 0.0109236 -0.0121773)
(0.115124 0.0127818 -0.00753331)
(0.113752 0.00857995 0.000613434)
(0.11235 0.00305601 0.00347474)
(0.112301 0.000965526 0.00130169)
(0.116151 0.00166601 0.000685908)
(0.121084 0.00256486 0.0031127)
(0.1244 0.00214162 0.0064027)
(0.128995 -0.00283916 0.00737741)
(0.134368 -0.010687 0.00472993)
(0.136544 -0.0132997 0.00460777)
(0.133417 -0.0118536 0.00561422)
(0.124956 -0.0120789 0.00167693)
(0.117043 -0.00783851 -0.0028462)
(0.114223 0.002544 -0.00466983)
(0.115069 0.00857251 -0.00730116)
(0.118475 0.00461836 -0.0100847)
(0.124378 -0.00615248 -0.00714529)
(0.130875 -0.0116214 0.00436801)
(0.132391 -0.00376289 0.00956453)
(0.124319 0.00954961 -0.000599235)
(0.115574 0.0154613 -0.00927464)
(0.114957 0.00826911 -0.0026396)
(0.120686 -0.00405567 0.00732057)
(0.135047 -0.00832337 0.00534372)
(0.144025 -0.00147989 -0.000507905)
(0.132673 0.00599344 0.00110508)
(0.117316 0.00718119 0.00903639)
(0.111381 0.00154698 0.0158124)
(0.111465 -0.00609357 0.0169776)
(0.11754 -0.00857355 0.014944)
(0.125738 -0.00412534 0.0137385)
(0.12468 0.000170238 0.0105461)
(0.115011 0.00156108 0.0043525)
(0.110033 0.00173653 -0.00131025)
(0.115665 -0.000100079 -0.00446204)
(0.125699 -0.00355329 -0.00698557)
(0.13402 -0.00256488 -0.0112366)
(0.138253 0.000131782 -0.0142394)
(0.137766 -0.000981156 -0.0103196)
(0.145595 -0.00301568 -0.00783546)
(0.137035 -0.00349644 -0.00550512)
(0.130775 -0.00288125 -0.00690569)
(0.125381 -0.00245686 -0.00188125)
(0.120363 5.77692e-05 0.00988673)
(0.120486 0.00373889 0.0169902)
(0.128901 0.00303742 0.014228)
(0.139597 -0.000774131 0.00595511)
(0.141641 -0.00118011 -0.00236736)
(0.133546 0.00475942 -0.00856018)
(0.124326 0.0117648 -0.0115514)
(0.118838 0.013494 -0.00901772)
(0.114869 0.00983487 -0.00301373)
(0.111982 0.00520046 0.00110208)
(0.113257 0.00299661 0.000861829)
(0.118183 0.00236276 0.000201804)
(0.122432 0.00174354 0.00333061)
(0.125114 0.000604021 0.00929096)
(0.129368 -0.00345568 0.0124203)
(0.13411 -0.0103982 0.00843397)
(0.132838 -0.0138001 0.00429438)
(0.126463 -0.0115514 0.00657501)
(0.120935 -0.00845811 0.00780281)
(0.116998 -0.00463823 0.00247883)
(0.1157 0.000870236 -0.00461827)
(0.118278 0.00331001 -0.00853639)
(0.123349 -0.000330025 -0.00738719)
(0.12805 -0.00815949 -0.00169602)
(0.131618 -0.0117766 0.00525518)
(0.13176 -0.00388605 0.00740052)
(0.127304 0.00906048 0.000544098)
(0.1278 0.0137212 -0.00178469)
(0.134153 0.00672901 0.00768758)
(0.135617 -0.00356102 0.0168602)
(0.137759 -0.00800904 0.0140542)
(0.142534 -0.00241364 0.00572142)
(0.142376 0.0050723 0.00433248)
(0.141621 0.0060904 0.00883715)
(0.140649 0.00216033 0.0130471)
(0.135192 -0.00206559 0.0137405)
(0.129334 -0.00513963 0.0113684)
(0.128383 -0.00517049 0.0106852)
(0.129961 -0.0030993 0.0108192)
(0.129957 -0.000534515 0.00706907)
(0.130488 0.0014606 0.00302114)
(0.133037 0.00106926 0.00271841)
(0.135453 -0.00262904 0.00133357)
(0.139287 -0.00539581 -0.00596933)
(0.146454 -0.00368014 -0.0143093)