/*--------------------------------*- C++ -*----------------------------------*\
| =========                 |                                                 |
| \\      /  F ield         | OpenFOAM: The Open Source CFD Toolbox           |
|  \\    /   O peration     | Version:  2.3.0                                 |
|   \\  /    A nd           | Web:      www.OpenFOAM.org                      |
|    \\/     M anipulation  |                                                 |
\*---------------------------------------------------------------------------*/
FoamFile
{
    version     2.0;
    format      ascii;
    class       volVectorField;
    location    "500";
    object      UMean;
}
// * * * * * * * * * * * * * * * * * * * * * * * * * * * * * * * * * * * * * //

dimensions      [0 1 -1 0 0 0 0];

internalField   nonuniform List<vector> 
90000
(
(0.00723752 4.93284e-06 -0.000132816)
(0.00724021 5.39721e-06 -0.000116068)
(0.00724293 5.5867e-06 -0.000103395)
(0.00725311 5.58125e-06 -9.57838e-05)
(0.00726159 5.63698e-06 -8.68673e-05)
(0.00726302 5.9383e-06 -8.3068e-05)
(0.00726358 5.83683e-06 -8.36086e-05)
(0.00726333 5.63252e-06 -9.05229e-05)
(0.00726175 5.76774e-06 -9.96231e-05)
(0.00725914 5.71509e-06 -0.000108728)
(0.00726634 5.05194e-06 -0.000113419)
(0.00727776 4.3821e-06 -0.000107148)
(0.00729699 3.28419e-06 -8.90542e-05)
(0.0073093 2.69232e-06 -6.39788e-05)
(0.00730422 3.40923e-06 -4.13598e-05)
(0.00729202 3.08776e-06 -2.55481e-05)
(0.0072702 3.03147e-06 -2.17746e-05)
(0.00726195 2.88529e-06 -3.30861e-05)
(0.00725662 2.83395e-06 -4.47588e-05)
(0.0072564 3.07563e-06 -5.58869e-05)
(0.00725657 3.6611e-06 -5.88454e-05)
(0.00725237 3.86737e-06 -5.98279e-05)
(0.00724508 3.8398e-06 -6.33438e-05)
(0.00724535 3.79204e-06 -6.54958e-05)
(0.00724717 3.73337e-06 -6.48075e-05)
(0.00725237 4.13828e-06 -6.68786e-05)
(0.00725509 4.10654e-06 -7.20813e-05)
(0.00725152 4.41863e-06 -7.92286e-05)
(0.00725032 4.94927e-06 -9.0413e-05)
(0.00724873 5.04699e-06 -9.78574e-05)
(0.00723022 5.63135e-06 -0.000113659)
(0.00723027 6.18585e-06 -0.000127887)
(0.00723242 6.03611e-06 -0.000140888)
(0.00722906 6.17271e-06 -0.000146768)
(0.00722856 6.51425e-06 -0.000146646)
(0.00722494 6.80493e-06 -0.000138161)
(0.00722129 7.27938e-06 -0.000133938)
(0.00721151 7.35675e-06 -0.000131474)
(0.00721382 7.12512e-06 -0.000139871)
(0.00721628 7.74002e-06 -0.00014511)
(0.00720781 6.75912e-06 -0.000146934)
(0.00725379 6.54235e-06 -0.000144858)
(0.00726288 6.9991e-06 -0.000152569)
(0.0072707 6.6613e-06 -0.000163248)
(0.0072742 5.93503e-06 -0.000173469)
(0.00728138 5.36935e-06 -0.000175364)
(0.00727843 5.0806e-06 -0.000173623)
(0.0072755 5.10482e-06 -0.000167245)
(0.00725924 5.28002e-06 -0.000160262)
(0.00726426 5.13074e-06 -0.000147334)
(0.0219891 3.62763e-05 -0.000344105)
(0.021979 3.45999e-05 -0.000310943)
(0.0219879 3.32698e-05 -0.000275994)
(0.0220146 3.23742e-05 -0.000242554)
(0.0220437 3.2169e-05 -0.000213036)
(0.0220528 3.30334e-05 -0.000199738)
(0.0220615 3.32169e-05 -0.000198879)
(0.0220606 3.29581e-05 -0.000213306)
(0.0220611 3.21856e-05 -0.000234158)
(0.0220701 3.00319e-05 -0.000263746)
(0.0221036 2.50802e-05 -0.000291407)
(0.0221524 1.90644e-05 -0.000294155)
(0.0222168 1.41824e-05 -0.000273521)
(0.0222502 1.45016e-05 -0.000240518)
(0.0222396 1.94646e-05 -0.000209995)
(0.0222051 2.32729e-05 -0.000182001)
(0.022126 2.47505e-05 -0.000168791)
(0.0220776 2.4511e-05 -0.00017896)
(0.0220403 2.53795e-05 -0.000192822)
(0.0220236 2.63335e-05 -0.000214017)
(0.0220141 2.82498e-05 -0.000219915)
(0.0220125 2.99803e-05 -0.000214073)
(0.0219961 2.9977e-05 -0.000214325)
(0.0220005 2.89532e-05 -0.000211347)
(0.0220031 2.92236e-05 -0.000207399)
(0.0220201 2.85977e-05 -0.000211094)
(0.0220359 2.98033e-05 -0.000223666)
(0.0220332 3.1554e-05 -0.000235351)
(0.0220393 3.245e-05 -0.000261015)
(0.0220392 3.44916e-05 -0.000278911)
(0.0219854 3.51757e-05 -0.0003153)
(0.0219995 3.4851e-05 -0.000349148)
(0.0220088 3.71813e-05 -0.00037759)
(0.0219925 3.97859e-05 -0.000394642)
(0.0219919 4.24018e-05 -0.000403711)
(0.0219847 4.4803e-05 -0.000393123)
(0.0219859 4.77991e-05 -0.000386615)
(0.0219642 4.94681e-05 -0.000378053)
(0.0219678 4.86954e-05 -0.000387251)
(0.0219677 4.91941e-05 -0.000387729)
(0.0219677 4.58884e-05 -0.000393293)
(0.0219859 4.44882e-05 -0.000383661)
(0.021982 4.52218e-05 -0.000386924)
(0.0219958 4.30144e-05 -0.000397492)
(0.0219988 3.96904e-05 -0.000414752)
(0.0220233 3.6935e-05 -0.000413851)
(0.0220239 3.55198e-05 -0.000412919)
(0.022036 3.62689e-05 -0.00039955)
(0.0220176 3.42153e-05 -0.000390574)
(0.0220453 3.69827e-05 -0.000367634)
(0.037268 8.19366e-05 -0.000489041)
(0.0372715 7.79899e-05 -0.000462382)
(0.0373048 7.26017e-05 -0.000426252)
(0.0373484 6.82808e-05 -0.000376987)
(0.0373991 6.72373e-05 -0.000328678)
(0.0374237 6.87027e-05 -0.000290436)
(0.0374422 6.93116e-05 -0.000271826)
(0.0374552 6.91121e-05 -0.000278236)
(0.0374568 6.7195e-05 -0.000303263)
(0.0374859 6.27717e-05 -0.000350288)
(0.0375297 5.4063e-05 -0.000409228)
(0.0376167 4.41476e-05 -0.00044704)
(0.0377087 3.62107e-05 -0.000443902)
(0.037742 4.02823e-05 -0.000428049)
(0.037743 4.78806e-05 -0.000425035)
(0.0377072 6.10682e-05 -0.000404873)
(0.0376083 6.926e-05 -0.000388752)
(0.0375164 7.02021e-05 -0.000379554)
(0.0374191 7.10081e-05 -0.000388689)
(0.0373762 7.25749e-05 -0.000400092)
(0.0373403 7.44448e-05 -0.000405912)
(0.0373527 7.3867e-05 -0.000396823)
(0.0373404 7.28569e-05 -0.000390043)
(0.0373412 7.11942e-05 -0.000372708)
(0.0373466 7.16835e-05 -0.000358004)
(0.0373556 6.91543e-05 -0.000355336)
(0.0373726 7.06908e-05 -0.00036554)
(0.0373761 7.46279e-05 -0.000383974)
(0.0373859 7.78329e-05 -0.000409949)
(0.0373662 8.51263e-05 -0.000434759)
(0.0373179 8.75592e-05 -0.000481959)
(0.0372641 8.60414e-05 -0.000523412)
(0.0372376 9.07571e-05 -0.00055943)
(0.0371834 9.57128e-05 -0.000586869)
(0.0371764 9.98677e-05 -0.000614339)
(0.0371672 0.000104917 -0.00061545)
(0.0371848 0.000110779 -0.000616951)
(0.0371824 0.000113637 -0.000605327)
(0.037213 0.000114479 -0.000612738)
(0.0372377 0.000111779 -0.000601608)
(0.0372766 0.000108974 -0.000612354)
(0.0372868 0.000107571 -0.000594229)
(0.0372836 0.000104384 -0.000601723)
(0.0373002 9.83478e-05 -0.000596937)
(0.0372916 8.8283e-05 -0.000603547)
(0.0373089 8.09925e-05 -0.000574776)
(0.0372923 7.62697e-05 -0.000564331)
(0.0373033 7.81326e-05 -0.000537103)
(0.0372765 7.65689e-05 -0.000532807)
(0.037291 8.32751e-05 -0.000504892)
(0.0524473 0.000125965 -0.000590283)
(0.0524538 0.000118281 -0.000576583)
(0.0524916 0.00010627 -0.000564171)
(0.0525398 9.77758e-05 -0.000512398)
(0.0525997 9.41738e-05 -0.000457053)
(0.0526517 9.79868e-05 -0.00038027)
(0.0527001 9.90044e-05 -0.000331825)
(0.0527645 0.000100343 -0.000310165)
(0.0528212 9.72054e-05 -0.000329333)
(0.0529204 9.33606e-05 -0.00037528)
(0.0529746 8.24458e-05 -0.000461798)
(0.0530911 6.60099e-05 -0.000518526)
(0.0531998 5.65207e-05 -0.000561881)
(0.0532239 6.3603e-05 -0.000585207)
(0.0531955 7.6075e-05 -0.000630803)
(0.0531287 9.66081e-05 -0.000627043)
(0.0530143 0.000114991 -0.000625946)
(0.0528949 0.000126053 -0.000598305)
(0.0527414 0.000131052 -0.00060422)
(0.0526061 0.000133722 -0.000583606)
(0.0525328 0.000136872 -0.000588164)
(0.0524614 0.00013827 -0.000570611)
(0.052414 0.000137062 -0.000565874)
(0.0523808 0.000132037 -0.000536213)
(0.0523887 0.000131745 -0.000520816)
(0.0523915 0.000124744 -0.000503826)
(0.0524274 0.000124324 -0.000512702)
(0.0524579 0.000127019 -0.000516826)
(0.0525006 0.0001325 -0.000536086)
(0.0525257 0.000140477 -0.000557543)
(0.05253 0.000146752 -0.000612131)
(0.0525142 0.000145949 -0.000654881)
(0.0525185 0.000152017 -0.00069816)
(0.0524664 0.000158144 -0.000728069)
(0.0524672 0.000163189 -0.000769521)
(0.0524483 0.000169491 -0.000796058)
(0.0524628 0.000178 -0.000814493)
(0.0524666 0.000181996 -0.000801996)
(0.0524953 0.000184293 -0.000808193)
(0.0525081 0.000181543 -0.000798054)
(0.0525372 0.000179822 -0.000813364)
(0.0525202 0.000180296 -0.000801873)
(0.0524894 0.000172437 -0.000806181)
(0.0524828 0.000162425 -0.000780885)
(0.052451 0.000146876 -0.00076514)
(0.0524454 0.000133904 -0.000708779)
(0.0523996 0.000123537 -0.000674847)
(0.0524244 0.000121978 -0.000625292)
(0.0524069 0.000117022 -0.000613847)
(0.0524896 0.000126672 -0.000587839)
(0.066852 0.000155423 -0.00070416)
(0.0668681 0.000143176 -0.000710302)
(0.0669499 0.000122785 -0.000717964)
(0.066992 0.000106676 -0.000674529)
(0.0670689 9.70519e-05 -0.000630783)
(0.0671218 9.96891e-05 -0.000532442)
(0.0671872 0.000100215 -0.000468586)
(0.0672463 0.00010123 -0.000416577)
(0.0673542 0.000100265 -0.000429847)
(0.067446 0.000104873 -0.000454284)
(0.0675133 0.0001056 -0.00054211)
(0.0675308 9.73164e-05 -0.000611504)
(0.0675348 9.39042e-05 -0.000697423)
(0.06748 0.000110617 -0.000755414)
(0.0673919 0.000129421 -0.000823838)
(0.0672767 0.000151244 -0.000830322)
(0.0671554 0.000171239 -0.000830967)
(0.0670463 0.000188592 -0.000789677)
(0.0669315 0.000202086 -0.000798291)
(0.0667909 0.000204625 -0.000746475)
(0.0666885 0.000205773 -0.000751947)
(0.0666336 0.000205976 -0.000712255)
(0.0666406 0.000202491 -0.000722584)
(0.0666521 0.00019371 -0.00069294)
(0.0667047 0.000190171 -0.000691542)
(0.0667386 0.000179397 -0.00065675)
(0.066803 0.000174402 -0.000670761)
(0.0668407 0.000175064 -0.000640917)
(0.0668993 0.00018058 -0.000663406)
(0.0669494 0.00019371 -0.000664878)
(0.0669645 0.000204949 -0.000725185)
(0.0669739 0.000206455 -0.000765875)
(0.0669718 0.00021126 -0.000830692)
(0.0669438 0.000216713 -0.00084204)
(0.0669162 0.000222862 -0.00089268)
(0.0668637 0.000230506 -0.000921971)
(0.0668399 0.000239719 -0.000962314)
(0.0668378 0.000244889 -0.00095696)
(0.0668789 0.000246803 -0.000969216)
(0.0669273 0.000242482 -0.000963433)
(0.0669941 0.000237413 -0.000982655)
(0.0670111 0.000235458 -0.000972302)
(0.0670323 0.000223343 -0.000972189)
(0.0670213 0.00020922 -0.000934229)
(0.0670075 0.00018527 -0.000915381)
(0.0669597 0.000169044 -0.000849648)
(0.0669086 0.00015083 -0.000807845)
(0.0668596 0.000147622 -0.000737584)
(0.0668336 0.000138526 -0.000718545)
(0.0668509 0.00014867 -0.000692331)
(0.0795668 0.000161051 -0.000807169)
(0.0795703 0.000147128 -0.000821909)
(0.0796634 0.000124451 -0.000857138)
(0.0796668 0.000107946 -0.000838638)
(0.0797746 9.5625e-05 -0.000815409)
(0.0797819 9.90525e-05 -0.000758757)
(0.0798902 9.89148e-05 -0.000708524)
(0.0799179 9.95361e-05 -0.000659674)
(0.0800585 9.56444e-05 -0.000682318)
(0.0801206 0.000104623 -0.000684446)
(0.0802195 0.000109533 -0.00074711)
(0.0802115 0.000112649 -0.000809822)
(0.0802469 0.000110946 -0.000912072)
(0.0801833 0.000134002 -0.000951469)
(0.0801681 0.000154713 -0.00100547)
(0.0801158 0.000181395 -0.00101316)
(0.0800595 0.000200446 -0.00101526)
(0.0799632 0.000220821 -0.000965492)
(0.079901 0.000242406 -0.000970578)
(0.0797797 0.000259223 -0.000925946)
(0.0796757 0.00026478 -0.00091541)
(0.0795722 0.000265434 -0.000866564)
(0.0795704 0.000260289 -0.000881745)
(0.0795405 0.000251296 -0.000866062)
(0.0795788 0.000245707 -0.000879385)
(0.0795781 0.000232514 -0.000853982)
(0.0796136 0.000225185 -0.000859419)
(0.0796163 0.000223231 -0.000828)
(0.0796628 0.000221017 -0.000830517)
(0.0797513 0.000231056 -0.00082396)
(0.0798407 0.000241131 -0.000869463)
(0.0799165 0.000241191 -0.000905493)
(0.0800114 0.000243862 -0.000972626)
(0.0800432 0.000249461 -0.000978439)
(0.0800673 0.000256668 -0.00101039)
(0.0800026 0.000267277 -0.00102129)
(0.0799537 0.000275895 -0.00106664)
(0.0798866 0.000279707 -0.00106974)
(0.0799064 0.000279637 -0.00108245)
(0.0798994 0.000276671 -0.00107631)
(0.0799568 0.000270846 -0.00109169)
(0.0799358 0.000269116 -0.00107732)
(0.0799542 0.000258928 -0.0010708)
(0.0798899 0.000248601 -0.0010277)
(0.0798754 0.000229698 -0.00101429)
(0.0797635 0.000211556 -0.000953381)
(0.0797284 0.00019468 -0.00091457)
(0.0795714 0.00018288 -0.000835681)
(0.0795868 0.000168398 -0.000816974)
(0.0794638 0.000165002 -0.000783978)
(0.090734 0.000153564 -0.000919759)
(0.0906606 0.000140234 -0.000928769)
(0.0907503 0.000115154 -0.000983879)
(0.090743 9.86828e-05 -0.000991467)
(0.0909081 8.32883e-05 -0.000997424)
(0.0909439 8.95647e-05 -0.000975393)
(0.0911171 9.12231e-05 -0.000947183)
(0.0911465 9.59359e-05 -0.000912833)
(0.0912947 9.12948e-05 -0.000927497)
(0.0913029 0.000101572 -0.000921631)
(0.0914222 0.000111088 -0.000933458)
(0.0913875 0.000125619 -0.000956673)
(0.0914636 0.000132218 -0.0010211)
(0.0913569 0.000160537 -0.00103124)
(0.0913494 0.000179191 -0.00105984)
(0.0912313 0.000209807 -0.00107313)
(0.0912123 0.000232171 -0.00108775)
(0.0910387 0.00025579 -0.00105287)
(0.0909918 0.000273979 -0.00105597)
(0.0908791 0.00029573 -0.0010338)
(0.0908347 0.000305034 -0.00104297)
(0.0907074 0.000305203 -0.000997423)
(0.0907405 0.000300107 -0.00102211)
(0.0907096 0.000294152 -0.0010044)
(0.0908073 0.000286852 -0.00103493)
(0.090787 0.000275404 -0.00101499)
(0.0908526 0.000262441 -0.00102982)
(0.0908034 0.00025795 -0.00100061)
(0.0908532 0.000246957 -0.00100337)
(0.0908445 0.000254533 -0.00097721)
(0.0909514 0.000260596 -0.00100384)
(0.0909805 0.000264815 -0.00101641)
(0.0911054 0.000264703 -0.00105624)
(0.0911167 0.000273726 -0.00104855)
(0.0911528 0.000287218 -0.0010681)
(0.0910503 0.00030972 -0.00106236)
(0.0909898 0.000318466 -0.00108647)
(0.090866 0.000321189 -0.00108235)
(0.0908489 0.000315816 -0.00110986)
(0.0908167 0.000307576 -0.00110061)
(0.0908564 0.000295046 -0.00112552)
(0.0908381 0.000288541 -0.00111506)
(0.0908585 0.000275303 -0.0011272)
(0.0908336 0.000265826 -0.00109776)
(0.09086 0.000242372 -0.00111171)
(0.0908374 0.000224846 -0.00105053)
(0.0908473 0.00020364 -0.00103657)
(0.0908137 0.000194511 -0.000950402)
(0.0907974 0.000171887 -0.000943374)
(0.0907333 0.000171482 -0.000892241)
(0.100214 0.000162584 -0.00104316)
(0.100152 0.000153867 -0.00103285)
(0.100303 0.000135779 -0.00107037)
(0.100299 0.000121544 -0.00107631)
(0.100465 0.000110996 -0.00109893)
(0.100436 0.000115377 -0.0010979)
(0.100558 0.000116448 -0.00109535)
(0.100503 0.000121624 -0.00106527)
(0.100624 0.000113345 -0.00107383)
(0.100572 0.000112113 -0.00104155)
(0.100714 0.000110781 -0.00103609)
(0.100723 0.000120684 -0.00104252)
(0.100866 0.000129321 -0.00108691)
(0.100814 0.000167963 -0.00107548)
(0.100848 0.000188049 -0.00108605)
(0.100728 0.000217418 -0.00109282)
(0.100769 0.00024568 -0.00112261)
(0.100617 0.00027433 -0.00109234)
(0.1006 0.000293388 -0.00108737)
(0.100451 0.00032205 -0.00108712)
(0.100425 0.000340434 -0.00110643)
(0.100235 0.00034844 -0.00107745)
(0.100236 0.000338153 -0.00110098)
(0.100133 0.000331155 -0.00108421)
(0.10021 0.000325701 -0.00111894)
(0.100134 0.000324136 -0.00111013)
(0.100176 0.000312624 -0.00113522)
(0.100044 0.000303518 -0.00109225)
(0.100069 0.00028217 -0.00110115)
(0.0999789 0.000281372 -0.00105176)
(0.10008 0.000275805 -0.00107151)
(0.100068 0.000272434 -0.00106046)
(0.100184 0.000262492 -0.00108108)
(0.100172 0.000267031 -0.00105644)
(0.100247 0.00027546 -0.00107078)
(0.10021 0.000299977 -0.00104711)
(0.10025 0.000312451 -0.00107715)
(0.100203 0.000321751 -0.00106476)
(0.100262 0.000320196 -0.00111338)
(0.100225 0.000316496 -0.00111837)
(0.10027 0.000305967 -0.00117915)
(0.100239 0.000304836 -0.00119255)
(0.100302 0.000295099 -0.00126098)
(0.100279 0.000289987 -0.00126053)
(0.100333 0.000269803 -0.0013089)
(0.100296 0.000251483 -0.00127382)
(0.100303 0.000230555 -0.00126638)
(0.100218 0.000213421 -0.00117468)
(0.10021 0.000196823 -0.0011426)
(0.100157 0.000175819 -0.00105292)
(0.108253 0.000159496 -0.00118854)
(0.108172 0.000141161 -0.00112633)
(0.108304 0.000118571 -0.00111367)
(0.108288 0.000111803 -0.00109456)
(0.108413 0.000109082 -0.00111678)
(0.108363 0.000117204 -0.00112238)
(0.108444 0.000119523 -0.00113481)
(0.108392 0.000128103 -0.00111429)
(0.108507 0.000121202 -0.00111709)
(0.108457 0.00012899 -0.00109911)
(0.10856 0.000127341 -0.00109514)
(0.108511 0.000137032 -0.00109032)
(0.108614 0.000146217 -0.00111287)
(0.108558 0.000185548 -0.00109785)
(0.108623 0.000210674 -0.00109188)
(0.108479 0.000240133 -0.00107457)
(0.108537 0.000269269 -0.00108542)
(0.108383 0.000299103 -0.00105424)
(0.108354 0.000313733 -0.00102919)
(0.108186 0.000340105 -0.000995888)
(0.10817 0.000365389 -0.00101307)
(0.108002 0.000378295 -0.000984742)
(0.10797 0.000366 -0.00100091)
(0.107774 0.000357755 -0.000987351)
(0.107779 0.000350668 -0.00103292)
(0.107665 0.000346513 -0.00103554)
(0.10772 0.000336598 -0.00107107)
(0.107666 0.000333044 -0.00106111)
(0.107713 0.000320847 -0.00107352)
(0.107652 0.000320123 -0.00105276)
(0.107725 0.000308639 -0.0010677)
(0.107689 0.000301499 -0.00105666)
(0.107818 0.000285781 -0.001088)
(0.107837 0.000281757 -0.00107016)
(0.107991 0.000279236 -0.00109989)
(0.107998 0.00029336 -0.00109941)
(0.108113 0.000300887 -0.00113916)
(0.108076 0.000310561 -0.0011533)
(0.108184 0.000305216 -0.0012314)
(0.108155 0.000304552 -0.00127148)
(0.10825 0.000287466 -0.00136743)
(0.10824 0.000281509 -0.00140958)
(0.108359 0.000264549 -0.00150299)
(0.10834 0.000266328 -0.00153422)
(0.108416 0.000246681 -0.00159634)
(0.108342 0.000233794 -0.00156752)
(0.108358 0.000207566 -0.00154457)
(0.108235 0.00020063 -0.00144408)
(0.108244 0.000179998 -0.00138086)
(0.108178 0.0001779 -0.00126934)
(0.114967 0.000105031 -0.0012493)
(0.114855 9.88368e-05 -0.001149)
(0.114902 7.55068e-05 -0.00111871)
(0.114827 7.13298e-05 -0.00105334)
(0.114895 7.32989e-05 -0.0010687)
(0.114832 8.88469e-05 -0.00104388)
(0.114883 9.52623e-05 -0.0010759)
(0.114811 9.91654e-05 -0.00105736)
(0.114878 8.99713e-05 -0.00109345)
(0.114805 8.96626e-05 -0.00108212)
(0.114843 8.66397e-05 -0.00110824)
(0.11478 9.12232e-05 -0.00109155)
(0.114815 0.00010044 -0.00112517)
(0.114737 0.000134078 -0.00110723)
(0.114736 0.000160386 -0.00111741)
(0.114593 0.000184698 -0.00107971)
(0.11464 0.000209333 -0.00109126)
(0.114572 0.000248646 -0.0010326)
(0.114599 0.000273555 -0.000992408)
(0.114484 0.000304532 -0.00089834)
(0.114475 0.000328252 -0.000880591)
(0.114361 0.000344501 -0.000820648)
(0.11433 0.00034484 -0.000822829)
(0.114156 0.000342943 -0.000782385)
(0.11415 0.000336205 -0.000815563)
(0.114037 0.000328098 -0.000802204)
(0.114089 0.000307275 -0.000845699)
(0.114033 0.000289046 -0.000846959)
(0.114077 0.000272751 -0.000888709)
(0.114029 0.000267774 -0.000884209)
(0.114096 0.000251469 -0.000915688)
(0.11409 0.000237081 -0.000911728)
(0.114225 0.000217389 -0.000950508)
(0.114275 0.000211395 -0.000957071)
(0.11444 0.000208359 -0.00101127)
(0.114488 0.000221759 -0.00104175)
(0.114628 0.00022945 -0.00110488)
(0.114659 0.000242016 -0.00111845)
(0.114784 0.000241797 -0.00119517)
(0.114815 0.000243031 -0.0012129)
(0.114951 0.000232942 -0.0012918)
(0.114987 0.000230018 -0.00131959)
(0.11509 0.000218301 -0.0014173)
(0.115079 0.00021205 -0.00146407)
(0.115154 0.000197415 -0.00153286)
(0.115089 0.000187601 -0.00151246)
(0.115136 0.000178828 -0.0015165)
(0.11502 0.000164657 -0.00143027)
(0.115047 0.000142107 -0.00140669)
(0.11492 0.000114515 -0.00130837)
(0.120509 3.1937e-05 -0.000922595)
(0.120414 1.53674e-05 -0.00086211)
(0.120412 -9.71623e-06 -0.000863513)
(0.120291 -1.85053e-05 -0.000811483)
(0.120279 -2.74222e-05 -0.000813661)
(0.120155 -2.21652e-05 -0.000775362)
(0.120159 -2.41405e-05 -0.000786692)
(0.120073 -1.55876e-05 -0.000749348)
(0.120119 -1.46893e-05 -0.000773694)
(0.120047 1.52622e-06 -0.000766211)
(0.120045 3.5931e-06 -0.000810594)
(0.119967 1.00629e-05 -0.000806037)
(0.119953 1.92604e-05 -0.000855222)
(0.119892 5.77801e-05 -0.000852237)
(0.119901 8.65081e-05 -0.000892167)
(0.119829 0.000111723 -0.00088022)
(0.119872 0.000125086 -0.000922146)
(0.119847 0.000155916 -0.000879784)
(0.119892 0.00017773 -0.000872559)
(0.119823 0.00021095 -0.000779519)
(0.119835 0.000229078 -0.000756944)
(0.11975 0.000244012 -0.000685166)
(0.11976 0.000244381 -0.000674706)
(0.119604 0.000242481 -0.000614938)
(0.119582 0.000226796 -0.000628258)
(0.119478 0.000216064 -0.000601311)
(0.119512 0.00018681 -0.000638211)
(0.119436 0.000173541 -0.000630762)
(0.119437 0.00016079 -0.000670026)
(0.119372 0.00016827 -0.000654997)
(0.119409 0.000160143 -0.00067247)
(0.119398 0.000154274 -0.000628294)
(0.11946 0.00013598 -0.000632136)
(0.119473 0.000136121 -0.000599164)
(0.119555 0.000131852 -0.000642796)
(0.119605 0.00015293 -0.000637078)
(0.119721 0.000161489 -0.000681748)
(0.119789 0.000175819 -0.000682473)
(0.119916 0.000167325 -0.000734278)
(0.120011 0.000163413 -0.000722827)
(0.120134 0.000136249 -0.000788406)
(0.12025 0.00013275 -0.000796875)
(0.120371 0.000123384 -0.000887012)
(0.120435 0.000136623 -0.000919962)
(0.120468 0.000120088 -0.00100904)
(0.120476 0.000114964 -0.00100611)
(0.120494 9.52146e-05 -0.0010533)
(0.120484 9.44813e-05 -0.00100087)
(0.120505 6.68101e-05 -0.00101856)
(0.1205 6.41649e-05 -0.000944068)
(0.125095 -7.01272e-05 -0.000421877)
(0.125067 -6.79195e-05 -0.000433032)
(0.125034 -7.84071e-05 -0.000466123)
(0.124987 -7.05562e-05 -0.000455839)
(0.124929 -6.65553e-05 -0.000467013)
(0.124855 -5.62265e-05 -0.000437519)
(0.124786 -6.65123e-05 -0.000415501)
(0.124745 -6.88001e-05 -0.000355471)
(0.124721 -7.90282e-05 -0.000335566)
(0.124707 -6.61833e-05 -0.000315184)
(0.124668 -7.71197e-05 -0.000331449)
(0.124646 -8.71398e-05 -0.000330262)
(0.12461 -9.75571e-05 -0.000363864)
(0.12459 -8.5813e-05 -0.000376868)
(0.12455 -7.82881e-05 -0.000412253)
(0.124512 -7.02582e-05 -0.000421315)
(0.124474 -7.02235e-05 -0.00044934)
(0.124455 -5.14512e-05 -0.000430552)
(0.124451 -3.53205e-05 -0.000412748)
(0.124421 -7.61689e-06 -0.000358911)
(0.124401 1.19441e-05 -0.000346931)
(0.124377 3.76753e-05 -0.00031737)
(0.12435 5.3799e-05 -0.000316558)
(0.124254 7.08873e-05 -0.000292172)
(0.124151 6.89753e-05 -0.000306483)
(0.124083 7.06896e-05 -0.000306859)
(0.124042 5.41638e-05 -0.000331295)
(0.123998 5.89212e-05 -0.000329436)
(0.123937 6.22829e-05 -0.000359202)
(0.123881 8.5332e-05 -0.000352711)
(0.123855 8.08245e-05 -0.000365294)
(0.123857 6.92323e-05 -0.000321503)
(0.123873 5.1532e-05 -0.000306588)
(0.123897 5.10699e-05 -0.000266858)
(0.12391 3.74447e-05 -0.000271882)
(0.123938 3.81759e-05 -0.000246766)
(0.123988 3.68933e-05 -0.000248645)
(0.124074 4.16064e-05 -0.000241005)
(0.124161 3.47908e-05 -0.000269382)
(0.124275 3.53259e-05 -0.000262191)
(0.124357 2.46194e-05 -0.000282778)
(0.124473 2.10087e-05 -0.000280254)
(0.124556 1.93938e-05 -0.000324187)
(0.124679 3.44622e-05 -0.000348749)
(0.124751 3.62928e-05 -0.000398564)
(0.124848 1.96065e-05 -0.000393068)
(0.124888 1.88365e-06 -0.000421701)
(0.124971 -1.80231e-05 -0.000408604)
(0.125009 -3.5867e-05 -0.000429742)
(0.125083 -6.16721e-05 -0.000406061)
(0.128557 -0.000199737 -0.000107182)
(0.128584 -0.000195947 -0.000122992)
(0.128575 -0.00019884 -0.000164412)
(0.128556 -0.000189718 -0.000168457)
(0.128512 -0.000182724 -0.000206161)
(0.12845 -0.000168479 -0.000214563)
(0.12836 -0.000167904 -0.000233075)
(0.128284 -0.000166964 -0.000203577)
(0.128206 -0.000164937 -0.000208532)
(0.128158 -0.000147662 -0.000203146)
(0.128106 -0.000146524 -0.000232099)
(0.128084 -0.000151779 -0.000222673)
(0.128053 -0.000152785 -0.000236388)
(0.128046 -0.000138825 -0.000228043)
(0.128013 -0.000125898 -0.000247835)
(0.127992 -0.00011438 -0.000240369)
(0.127938 -0.00011001 -0.000264288)
(0.127929 -9.84585e-05 -0.000247556)
(0.127922 -8.43159e-05 -0.000242464)
(0.127926 -6.25026e-05 -0.000196563)
(0.127905 -5.48242e-05 -0.000183752)
(0.127911 -4.45014e-05 -0.000140003)
(0.127919 -3.48928e-05 -0.000105707)
(0.127907 -1.39149e-05 -4.28835e-05)
(0.127881 -1.22106e-05 -9.70184e-06)
(0.127891 -1.64892e-05 3.50353e-05)
(0.127898 -3.10736e-05 5.99472e-05)
(0.127895 -2.67405e-05 9.60934e-05)
(0.127859 -1.70355e-05 8.35879e-05)
(0.127817 7.52983e-06 8.25763e-05)
(0.127793 6.24535e-06 6.0716e-05)
(0.127778 -1.77103e-06 6.10956e-05)
(0.127783 -1.9582e-05 2.9576e-05)
(0.127769 -2.1943e-05 1.8646e-05)
(0.127761 -3.8554e-05 -1.5099e-05)
(0.12773 -3.99076e-05 -2.86233e-05)
(0.127739 -5.51653e-05 -6.28201e-05)
(0.127762 -6.11407e-05 -7.63542e-05)
(0.127814 -7.98419e-05 -0.000123016)
(0.127862 -8.69966e-05 -0.000128229)
(0.127918 -0.000116374 -0.000150139)
(0.127964 -0.000128447 -0.000133291)
(0.12803 -0.000142955 -0.000151339)
(0.128114 -0.000139713 -0.000139512)
(0.12822 -0.000152728 -0.000143292)
(0.128298 -0.000155126 -0.000112188)
(0.128375 -0.000172001 -0.000117853)
(0.128426 -0.00017298 -0.000100709)
(0.128497 -0.00019547 -0.000112496)
(0.128529 -0.00019379 -9.74282e-05)
(0.130781 -0.000274968 2.58133e-06)
(0.13079 -0.000265047 3.18996e-06)
(0.130763 -0.000255247 -1.73152e-05)
(0.130746 -0.00024082 -1.96544e-05)
(0.130708 -0.000230593 -5.46948e-05)
(0.130679 -0.000224428 -8.55154e-05)
(0.130623 -0.000233443 -0.000122906)
(0.13059 -0.000248355 -0.000115765)
(0.130544 -0.000256671 -0.000123237)
(0.130538 -0.000255168 -0.00012948)
(0.130517 -0.000272439 -0.000159316)
(0.130543 -0.000301399 -0.000161751)
(0.130546 -0.000324789 -0.000182969)
(0.130595 -0.000326168 -0.000192718)
(0.130614 -0.000317903 -0.000214043)
(0.130652 -0.000305941 -0.000214775)
(0.130637 -0.000298865 -0.000236678)
(0.13065 -0.00029173 -0.000236234)
(0.130639 -0.000273086 -0.000236304)
(0.130637 -0.000244586 -0.000208861)
(0.130574 -0.000220417 -0.000201904)
(0.130544 -0.000188514 -0.00017633)
(0.130493 -0.000156509 -0.000158282)
(0.130472 -0.000128088 -0.000110272)
(0.130436 -0.000118003 -7.63109e-05)
(0.13047 -0.00011636 -2.34064e-05)
(0.130491 -0.000121004 1.36995e-05)
(0.130548 -0.000113291 5.70462e-05)
(0.130555 -9.49735e-05 5.48203e-05)
(0.130601 -7.66025e-05 5.76158e-05)
(0.130626 -8.40859e-05 4.69266e-05)
(0.1307 -0.000107611 4.33694e-05)
(0.130746 -0.000134322 3.41969e-06)
(0.13082 -0.000148827 -2.3721e-05)
(0.130819 -0.000157731 -5.43037e-05)
(0.130814 -0.000157745 -6.35363e-05)
(0.13076 -0.000163218 -8.63662e-05)
(0.130768 -0.000173053 -9.4986e-05)
(0.13075 -0.000185174 -0.000126647)
(0.13077 -0.000197733 -0.00013638)
(0.130723 -0.000213228 -0.000149472)
(0.130704 -0.000223143 -0.000130977)
(0.130651 -0.000224394 -0.000126215)
(0.130681 -0.000226567 -9.79203e-05)
(0.130689 -0.000230985 -7.11739e-05)
(0.130746 -0.000241612 -3.00734e-05)
(0.130745 -0.000251865 -2.06453e-05)
(0.130779 -0.000265134 -5.52832e-06)
(0.130778 -0.000275562 -1.24992e-05)
(0.130798 -0.000275788 2.54896e-07)
(0.132777 -0.000289792 -9.26858e-05)
(0.132785 -0.00029079 -9.55856e-05)
(0.132768 -0.000296102 -0.000113812)
(0.132777 -0.000286348 -0.000117055)
(0.132777 -0.000272031 -0.000144957)
(0.132794 -0.000265656 -0.000174493)
(0.132774 -0.000273655 -0.000206014)
(0.132766 -0.000282553 -0.000203874)
(0.132733 -0.000286622 -0.000203011)
(0.132737 -0.000289569 -0.000200678)
(0.132726 -0.000303024 -0.000206115)
(0.132764 -0.000318492 -0.00019816)
(0.13278 -0.000331865 -0.000208124)
(0.132827 -0.000339582 -0.000216054)
(0.132861 -0.000339081 -0.000228471)
(0.13292 -0.000329869 -0.000226167)
(0.132941 -0.000327955 -0.000240276)
(0.132978 -0.000327436 -0.000237835)
(0.132998 -0.000319887 -0.000237632)
(0.133034 -0.000297271 -0.000220674)
(0.133024 -0.000270564 -0.000226718)
(0.13304 -0.000241081 -0.000231039)
(0.133033 -0.000212699 -0.000248251)
(0.13305 -0.000184302 -0.000246548)
(0.133041 -0.00017412 -0.000251593)
(0.133049 -0.000176117 -0.000244562)
(0.133033 -0.000183261 -0.0002451)
(0.133047 -0.000178915 -0.000227733)
(0.133005 -0.000164415 -0.000239585)
(0.132986 -0.0001515 -0.000244305)
(0.132927 -0.000158189 -0.000248476)
(0.132923 -0.000180341 -0.000224003)
(0.132908 -0.000213143 -0.000221193)
(0.132926 -0.00022566 -0.000219787)
(0.132898 -0.000229044 -0.000227085)
(0.132872 -0.000224982 -0.000208774)
(0.132813 -0.00023877 -0.000201763)
(0.132815 -0.000256315 -0.000189464)
(0.132806 -0.000272839 -0.00020141)
(0.132835 -0.000270666 -0.000207808)
(0.132819 -0.000272278 -0.000224137)
(0.132821 -0.000269516 -0.000218876)
(0.132782 -0.000277035 -0.000220723)
(0.132808 -0.000283169 -0.000203177)
(0.132825 -0.000289373 -0.000183791)
(0.132871 -0.000283853 -0.000145763)
(0.132855 -0.000282823 -0.000127832)
(0.132849 -0.000278983 -0.000105145)
(0.132819 -0.000285308 -9.86505e-05)
(0.132807 -0.000283462 -8.68701e-05)
(0.135066 -0.000378766 -0.000274145)
(0.135072 -0.000375555 -0.000264653)
(0.135052 -0.000373454 -0.000264115)
(0.135065 -0.00036235 -0.000249068)
(0.135068 -0.000343328 -0.000250711)
(0.135103 -0.00034054 -0.000261902)
(0.135106 -0.00034594 -0.000288831)
(0.135118 -0.00034747 -0.000296481)
(0.135089 -0.000346378 -0.000300837)
(0.135093 -0.000354739 -0.000298534)
(0.135093 -0.0003685 -0.00030148)
(0.135146 -0.000390879 -0.000294077)
(0.135168 -0.000415183 -0.000305722)
(0.135224 -0.000433054 -0.000316549)
(0.135254 -0.000436591 -0.000333738)
(0.135309 -0.000435063 -0.000335629)
(0.135318 -0.000440329 -0.00034722)
(0.13534 -0.000439928 -0.000351187)
(0.135339 -0.000440536 -0.00035897)
(0.135347 -0.000434074 -0.000358559)
(0.135318 -0.000417413 -0.000372423)
(0.135315 -0.000398592 -0.000379513)
(0.135299 -0.000376024 -0.000399122)
(0.135308 -0.000349883 -0.000400126)
(0.135312 -0.00032931 -0.000405376)
(0.135338 -0.00031883 -0.000396649)
(0.135328 -0.000317727 -0.000397301)
(0.135338 -0.000311095 -0.000376221)
(0.135288 -0.000288769 -0.000371222)
(0.135248 -0.000271625 -0.000368174)
(0.135164 -0.00026972 -0.000372463)
(0.135142 -0.000293274 -0.00034186)
(0.135093 -0.000322674 -0.000310336)
(0.135096 -0.000338137 -0.000291904)
(0.135039 -0.000331337 -0.00029274)
(0.135021 -0.000329078 -0.000279867)
(0.134946 -0.000332011 -0.000275821)
(0.134953 -0.000344356 -0.000270849)
(0.134936 -0.000354445 -0.000281052)
(0.134981 -0.00035955 -0.00029567)
(0.134971 -0.000353503 -0.000321309)
(0.135018 -0.000349559 -0.000333181)
(0.134973 -0.000346805 -0.00034764)
(0.135009 -0.000361616 -0.000351459)
(0.134989 -0.00036898 -0.000350484)
(0.135061 -0.000377892 -0.000339086)
(0.135036 -0.000378015 -0.000334948)
(0.13509 -0.000381257 -0.000322074)
(0.13506 -0.000373814 -0.000308355)
(0.135101 -0.000383449 -0.000286948)
(0.137577 -0.000379537 -0.000365735)
(0.137642 -0.000374711 -0.000349006)
(0.137656 -0.000374481 -0.000333149)
(0.137719 -0.000364069 -0.00030539)
(0.137733 -0.000352559 -0.000291032)